# vtk DataFile Version 1.0
unstructured grid
ascii
DATASET UNSTRUCTURED_GRID
points 13672 float
0.0796578 -0.059106 0
0.00128732 0.00159165 0
0.00227961 -0.00102548 0
0.0791586 -0.0598787 0
-0.0546216 0.01 0
0.000495206 0.025 0
0.0800549 -0.035 0
0.135172 -0.08 0
-0.0546216 -0.0451168 0
0.000495206 -0.0301168 0
0.0800549 -0.0901168 0
0.135172 -0.135117 0
-0.0546216 -0.0451168 -0.00551168
0.000495206 -0.0301168 -0.00551168
0.0800549 -0.0901168 -0.00551168
0.135172 -0.135117 -0.00551168
0.135172 -0.08 -0.00551168
0.0800549 -0.035 -0.00551168
0.000495206 0.025 -0.00551168
-0.0546216 0.01 -0.00551168
0.00128732 0.00159165 -0.00551168
0.00227961 -0.00102548 -0.00551168
0.0791586 -0.0598787 -0.00551168
0.0796578 -0.059106 -0.00551168
0.00165953 -0.000990923 0
0.00119576 -0.000874076 0
0.000866021 -0.000641801 0
0.000645147 -0.000349912 0
0.00052235 -1.7281e-05 0
0.00049972 0.000348016 0
0.000601632 0.000737716 0
0.000861774 0.0011403 0
0.00157235 0.00183217 0
0.00188647 0.00206725 0
0.00222612 0.00230203 0
0.00258713 0.00254351 0
0.00296826 0.00279524 0
0.00337118 0.00305664 0
0.00379785 0.00332658 0
0.00425045 0.00360349 0
0.00473139 0.00388521 0
0.0052432 0.00416895 0
0.0057881 0.00445204 0
0.00636753 0.00473281 0
0.00698281 0.00500961 0
0.00763526 0.00528058 0
0.00832616 0.00554366 0
0.00905691 0.00579603 0
0.00982918 0.00603333 0
0.0106445 0.00625033 0
0.0115038 0.00644128 0
0.0124073 0.00660297 0
0.0133543 0.00673414 0
0.0143444 0.00683382 0
0.0153769 0.00690031 0
0.0164512 0.00693173 0
0.0175666 0.00692547 0
0.0187219 0.00687822 0
0.0199156 0.00678477 0
0.0211454 0.00663864 0
0.0224084 0.00643275 0
0.0237018 0.00616676 0
0.0250249 0.00584739 0
0.026375 0.00547298 0
0.0277479 0.00503752 0
0.0291386 0.00453545 0
0.0305433 0.0039653 0
0.0319572 0.0033256 0
0.0333681 0.00260019 0
0.034775 0.00179799 0
0.0361793 0.000930615 0
0.0375798 3.12222e-06 0
0.0389689 -0.000988429 0
0.0403357 -0.00205109 0
0.041675 -0.00318283 0
0.0429849 -0.00437751 0
0.0442643 -0.00562904 0
0.0455126 -0.00693089 0
0.0467314 -0.00827518 0
0.0479204 -0.00965638 0
0.0490661 -0.0110799 0
0.0501515 -0.0125519 0
0.0511696 -0.0140695 0
0.0521492 -0.0156071 0
0.0531202 -0.0171411 0
0.0540851 -0.0186663 0
0.0550431 -0.0201798 0
0.0559923 -0.0216793 0
0.0569311 -0.0231626 0
0.0578582 -0.0246273 0
0.0587723 -0.0260715 0
0.0596721 -0.027493 0
0.0605563 -0.02889 0
0.0614241 -0.0302609 0
0.0622742 -0.0316042 0
0.063106 -0.0329183 0
0.0639186 -0.034202 0
0.0647113 -0.0354543 0
0.0654835 -0.0366743 0
0.0662345 -0.0378613 0
0.0669642 -0.0390145 0
0.0676726 -0.0401333 0
0.0683597 -0.0412172 0
0.0690246 -0.0422665 0
0.0696662 -0.0432819 0
0.0702841 -0.0442636 0
0.0708793 -0.0452111 0
0.0714538 -0.0461237 0
0.072009 -0.047001 0
0.0725452 -0.0478434 0
0.0730611 -0.0486524 0
0.073556 -0.0494294 0
0.0740291 -0.0501756 0
0.0744812 -0.0508916 0
0.0749138 -0.0515773 0
0.0753285 -0.0522331 0
0.0757266 -0.0528592 0
0.076109 -0.0534564 0
0.0764753 -0.0540264 0
0.0768243 -0.054571 0
0.0771553 -0.0550919 0
0.0774679 -0.0555901 0
0.0777617 -0.0560669 0
0.0780369 -0.056523 0
0.0782958 -0.0569578 0
0.0785421 -0.0573703 0
0.0787786 -0.0577603 0
0.0790073 -0.0581279 0
0.0792295 -0.058474 0
0.0794462 -0.0587995 0
0.0798803 -0.0594162 0
0.0800272 -0.0596588 0
0.0800357 -0.0598891 0
0.0799275 -0.0600784 0
0.0797205 -0.0601773 0
0.0794593 -0.0601051 0
0.0789155 -0.0596491 0
0.0786707 -0.0593963 0
0.0784111 -0.0591319 0
0.0781372 -0.0588542 0
0.0778566 -0.0585548 0
0.0775715 -0.0582308 0
0.0772803 -0.0578828 0
0.0769832 -0.0575099 0
0.0766822 -0.0571097 0
0.0763801 -0.0566796 0
0.0760759 -0.0562196 0
0.0757623 -0.0557337 0
0.0754359 -0.0552232 0
0.0750951 -0.0546879 0
0.0747379 -0.054128 0
0.0743626 -0.0535435 0
0.0739688 -0.0529338 0
0.0735559 -0.0522981 0
0.0731238 -0.0516357 0
0.0726718 -0.050946 0
0.0721991 -0.0502288 0
0.0717046 -0.049484 0
0.0711872 -0.0487117 0
0.0706461 -0.047912 0
0.0700804 -0.0470849 0
0.0694892 -0.0462308 0
0.0688718 -0.0453499 0
0.0682271 -0.0444431 0
0.0675544 -0.043511 0
0.0668527 -0.0425546 0
0.0661215 -0.0415748 0
0.06536 -0.040573 0
0.0645676 -0.0395504 0
0.0637439 -0.0385087 0
0.0628887 -0.0374493 0
0.062002 -0.0363741 0
0.0610838 -0.0352847 0
0.0601345 -0.0341831 0
0.0591547 -0.033071 0
0.0581456 -0.0319502 0
0.0571083 -0.0308224 0
0.0560444 -0.0296893 0
0.0549562 -0.028552 0
0.053845 -0.0274126 0
0.0527113 -0.0262746 0
0.051554 -0.0251427 0
0.0503724 -0.0240222 0
0.0491675 -0.0229164 0
0.047941 -0.0218282 0
0.0466955 -0.0207597 0
0.0454337 -0.0197126 0
0.0441592 -0.0186878 0
0.0428751 -0.0176863 0
0.0415841 -0.0167097 0
0.0402878 -0.0157609 0
0.0389879 -0.0148428 0
0.0376864 -0.0139575 0
0.0363853 -0.013107 0
0.0350871 -0.0122931 0
0.0337942 -0.0115164 0
0.0325095 -0.0107772 0
0.0312357 -0.0100756 0
0.0299758 -0.00941024 0
0.0287337 -0.00877784 0
0.0275126 -0.00817571 0
0.0263139 -0.00760375 0
0.0251376 -0.00706528 0
0.0239829 -0.0065649 0
0.0228537 -0.00609619 0
0.0217522 -0.00565563 0
0.0206795 -0.00524226 0
0.0196364 -0.00485507 0
0.0186233 -0.00449318 0
0.0176408 -0.00415577 0
0.016689 -0.00384204 0
0.0157682 -0.00355115 0
0.0148783 -0.00328218 0
0.0140192 -0.00303468 0
0.0131906 -0.00280795 0
0.0123925 -0.00260016 0
0.0116246 -0.00241012 0
0.0108864 -0.00223769 0
0.0101774 -0.00208212 0
0.00949701 -0.00194206 0
0.00884483 -0.0018163 0
0.0082202 -0.0017039 0
0.00762247 -0.00160391 0
0.00705097 -0.00151528 0
0.006505 -0.00143697 0
0.0059838 -0.00136806 0
0.00548662 -0.00130772 0
0.00501265 -0.00125519 0
0.00456114 -0.00120954 0
0.00413136 -0.00116914 0
0.00372257 -0.00113251 0
0.00333398 -0.00109853 0
0.00296466 -0.00106798 0
0.00261363 -0.0010431 0
-0.052721 -0.0445996 0
-0.0508204 -0.0440823 0
-0.0489199 -0.0435651 0
-0.0470193 -0.0430478 0
-0.0451187 -0.0425306 0
-0.0432181 -0.0420134 0
-0.0413175 -0.0414961 0
-0.039417 -0.0409789 0
-0.0375164 -0.0404616 0
-0.0356158 -0.0399444 0
-0.0337152 -0.0394271 0
-0.0318146 -0.0389099 0
-0.0299141 -0.0383927 0
-0.0280135 -0.0378754 0
-0.0261129 -0.0373582 0
-0.0242123 -0.0368409 0
-0.0223117 -0.0363237 0
-0.0204112 -0.0358065 0
-0.0185106 -0.0352892 0
-0.01661 -0.034772 0
-0.0147094 -0.0342547 0
-0.0128088 -0.0337375 0
-0.0109083 -0.0332202 0
-0.00900769 -0.032703 0
-0.00710711 -0.0321858 0
-0.00520653 -0.0316685 0
-0.00330595 -0.0311513 0
-0.00140537 -0.030634 0
0.00190689 -0.0299614 0
0.00332271 -0.0298498 0
0.00474133 -0.0297825 0
0.00616136 -0.0297597 0
0.0075814 -0.0297814 0
0.00900007 -0.0298477 0
0.010416 -0.0299583 0
0.0118278 -0.0301127 0
0.0132342 -0.0303103 0
0.0146339 -0.0305504 0
0.0160259 -0.0308322 0
0.0174091 -0.0311546 0
0.0187824 -0.0315166 0
0.020145 -0.031917 0
0.0214961 -0.0323546 0
0.0228351 -0.032828 0
0.0241613 -0.0333361 0
0.0254744 -0.0338774 0
0.0267738 -0.0344507 0
0.0280592 -0.0350545 0
0.0293306 -0.0356877 0
0.0305875 -0.0363488 0
0.0318301 -0.0370367 0
0.0330581 -0.0377501 0
0.0342717 -0.0384879 0
0.0354708 -0.0392489 0
0.0366556 -0.0400321 0
0.0378262 -0.0408363 0
0.0389828 -0.0416607 0
0.0401254 -0.0425042 0
0.0412543 -0.0433659 0
0.0423698 -0.0442451 0
0.043472 -0.0451408 0
0.0445612 -0.0460523 0
0.0456375 -0.0469789 0
0.0467013 -0.0479199 0
0.0477529 -0.0488746 0
0.0487923 -0.0498424 0
0.04982 -0.0508227 0
0.0508362 -0.051815 0
0.051841 -0.0528187 0
0.0528348 -0.0538333 0
0.0538178 -0.0548584 0
0.0547903 -0.0558935 0
0.0557524 -0.0569382 0
0.0567045 -0.0579922 0
0.0576467 -0.0590549 0
0.0585792 -0.0601261 0
0.0595024 -0.0612055 0
0.0604163 -0.0622926 0
0.0613212 -0.0633873 0
0.0622174 -0.0644891 0
0.0631049 -0.0655979 0
0.0639841 -0.0667134 0
0.064855 -0.0678353 0
0.0657179 -0.0689633 0
0.0665729 -0.0700974 0
0.0674202 -0.0712372 0
0.06826 -0.0723826 0
0.0690925 -0.0735333 0
0.0699178 -0.0746892 0
0.070736 -0.0758501 0
0.0715473 -0.0770159 0
0.0723518 -0.0781863 0
0.0731498 -0.0793612 0
0.0739412 -0.0805405 0
0.0747264 -0.081724 0
0.0755053 -0.0829116 0
0.0762781 -0.0841033 0
0.0770449 -0.0852987 0
0.0778059 -0.0864979 0
0.0785611 -0.0877007 0
0.0793108 -0.088907 0
0.0814681 -0.0912706 0
0.0828814 -0.0924245 0
0.0842946 -0.0935783 0
0.0857079 -0.0947322 0
0.0871211 -0.095886 0
0.0885344 -0.0970399 0
0.0899476 -0.0981937 0
0.0913609 -0.0993476 0
0.0927741 -0.100501 0
0.0941874 -0.101655 0
0.0956006 -0.102809 0
0.0970139 -0.103963 0
0.0984272 -0.105117 0
0.0998404 -0.106271 0
0.101254 -0.107424 0
0.102667 -0.108578 0
0.10408 -0.109732 0
0.105493 -0.110886 0
0.106907 -0.11204 0
0.10832 -0.113194 0
0.109733 -0.114348 0
0.111146 -0.115501 0
0.11256 -0.116655 0
0.113973 -0.117809 0
0.115386 -0.118963 0
0.116799 -0.120117 0
0.118213 -0.121271 0
0.119626 -0.122424 0
0.121039 -0.123578 0
0.122452 -0.124732 0
0.123866 -0.125886 0
0.125279 -0.12704 0
0.126692 -0.128194 0
0.128105 -0.129348 0
0.129519 -0.130501 0
0.130932 -0.131655 0
0.132345 -0.132809 0
0.133758 -0.133963 0
0.135172 -0.133216 0
0.135172 -0.131316 0
0.135172 -0.129415 0
0.135172 -0.127514 0
0.135172 -0.125614 0
0.135172 -0.123713 0
0.135172 -0.121813 0
0.135172 -0.119912 0
0.135172 -0.118012 0
0.135172 -0.116111 0
0.135172 -0.11421 0
0.135172 -0.11231 0
0.135172 -0.110409 0
0.135172 -0.108509 0
0.135172 -0.106608 0
0.135172 -0.104708 0
0.135172 -0.102807 0
0.135172 -0.100906 0
0.135172 -0.0990058 0
0.135172 -0.0971052 0
0.135172 -0.0952046 0
0.135172 -0.0933041 0
0.135172 -0.0914035 0
0.135172 -0.0895029 0
0.135172 -0.0876023 0
0.135172 -0.0857017 0
0.135172 -0.0838012 0
0.135172 -0.0819006 0
0.133758 -0.0788462 0
0.132345 -0.0776923 0
0.130932 -0.0765385 0
0.129519 -0.0753846 0
0.128105 -0.0742308 0
0.126692 -0.0730769 0
0.125279 -0.0719231 0
0.123866 -0.0707692 0
0.122452 -0.0696154 0
0.121039 -0.0684615 0
0.119626 -0.0673077 0
0.118213 -0.0661538 0
0.116799 -0.065 0
0.115386 -0.0638462 0
0.113973 -0.0626923 0
0.11256 -0.0615385 0
0.111146 -0.0603846 0
0.109733 -0.0592308 0
0.10832 -0.0580769 0
0.106907 -0.0569231 0
0.105493 -0.0557692 0
0.10408 -0.0546154 0
0.102667 -0.0534615 0
0.101254 -0.0523077 0
0.0998404 -0.0511538 0
0.0984272 -0.05 0
0.0970139 -0.0488462 0
0.0956006 -0.0476923 0
[...]
CELL_DATA 13116
SCALARS rho float
LOOKUP_TABLE default
0.5977
0.5977
0.587395
0.622938
0.595438
0.680197
0.414546
0.676887
0.5977
0.597703
0.380547
0.595492
0.594132
0.515526
0.539705
0.680013
0.5977
0.5977
0.680611
0.371515
0.5977
0.593211
0.570667
0.5977
0.5977
0.585974
0.597703
0.597696
0.5977
0.5977
0.680406
0.588541
0.5977
0.5977
0.423954
0.5977
0.5977
0.679402
0.680712
0.680774
0.680521
0.67461
0.5977
0.556159
0.680345
0.680886
0.5977
0.680589
0.580481
0.5977
0.679117
0.5977
0.457628
0.5977
0.5977
0.5977
0.552847
0.5977
0.5977
0.562089
0.520508
0.593146
0.5977
0.680737
0.680231
0.484462
0.680033
0.5977
0.680565
0.680361
0.538698
0.5977
0.596185
0.524697
0.676567
0.492394
0.5977
0.673643
0.387601
0.5977
0.5977
0.590601
0.5977
0.680744
0.679501
0.597699
0.433801
0.5977
0.678446
0.358138
0.59762
0.597701
0.5977
0.678121
0.5977
0.5977
0.5977
0.680451
0.679688
0.5977
0.5977
0.5977
0.680616
0.5977
0.5977
0.576669
0.597696
0.5977
0.597695
0.5977
0.5977
0.597532
0.5977
0.5977
0.5977
0.680289
0.465101
0.5977
0.679848
0.680325
0.5977
0.59773
0.680655
0.59756
0.67688
0.5977
0.442613
0.5977
0.587457
0.5977
0.679868
0.596577
0.5977
0.585418
0.5977
0.5977
0.558242
0.680165
0.5977
0.680249
0.5977
0.5977
0.5977
0.5977
0.5977
0.539742
0.420078
0.595256
0.597703
0.679968
0.5977
0.680662
0.680591
0.439453
0.597702
0.680479
0.589442
0.5977
0.680653
0.5977
0.5977
0.381292
0.5977
0.590033
0.597726
0.595557
0.672771
0.5977
0.420401
0.5977
0.5977
0.55733
0.535212
0.5977
0.680359
0.571149
0.559408
0.595473
0.597691
0.68072
0.36046
0.5977
0.5977
0.5977
0.680756
0.5977
0.438516
0.68023
0.5977
0.5977
0.5977
0.596477
0.680082
0.597726
0.5977
0.679943
0.5977
0.680291
0.676746
0.5977
0.5977
0.5977
0.5977
0.534526
0.597505
0.678892
0.5977
0.5977
0.550185
0.362439
0.487869
0.680456
0.596595
0.358491
0.358097
0.446558
0.5977
0.680124
0.674101
0.597698
0.542541
0.679896
0.5977
0.359698
0.5977
0.597403
0.5977
0.5977
0.68043
0.597696
0.698663
0.59061
0.680392
0.5977
0.680015
0.680493
0.680234
0.589692
0.5977
0.5977
0.664438
0.679901
0.556298
0.680064
0.678036
0.566069
0.680425
0.597703
0.680057
0.400162
0.584774
0.680401
0.679867
0.680351
0.679507
0.5977
0.5977
0.376237
0.597549
0.5977
0.547151
0.5977
0.5977
0.5977
0.408658
0.680121
0.458101
0.5977
0.5977
0.398907
0.591393
0.678441
0.627749
0.5977
0.587125
0.602745
0.5977
0.680226
0.680291
0.378033
0.421671
0.597728
0.5977
0.597728
0.596974
0.597709
0.597715
0.6503
0.470573
0.680453
0.614859
0.422774
0.368017
0.450715
0.5977
0.597726
0.5977
0.5977
0.597702
0.393522
0.680199
0.5977
0.597734
0.560584
0.680235
0.680098
0.680473
0.445513
0.680181
0.5977
0.595048
0.674817
0.679888
0.67616
0.597716
0.680377
0.511516
0.68004
0.597704
0.5977
0.35809
0.597714
0.597704
0.451289
0.597342
0.592083
0.5977
0.5977
0.5977
0.435196
0.680551
0.5977
0.509843
0.680112
0.597698
0.5977
0.674386
0.597699
0.5977
0.408175
0.5977
0.597713
0.680054
0.5977
0.5977
0.597699
0.597696
0.680189
0.434337
0.590967
0.5977
0.5977
0.556328
0.434604
0.577542
0.668724
0.5977
0.5977
0.429831
0.59203
0.680499
0.603799
0.412022
0.676973
0.486197
0.581722
0.680412
0.676419
0.5977
0.358335
0.680488
0.680177
0.680062
0.680709
0.5977
0.5977
0.5977
0.534537
0.360709
0.680104
0.359525
0.5977
0.5977
0.59774
0.597696
0.5977
0.597732
0.427138
0.679078
0.597687
0.5977
0.5977
0.679932
0.5977
0.680404
0.582367
0.417617
0.5977
0.5977
0.589885
0.5977
0.680727
0.5977
0.5977
0.5977
0.592423
0.5977
0.5977
0.5977
0.5977
0.680328
0.5977
0.5977
0.5977
0.584288
0.5977
0.5977
0.454421
0.680396
0.634511
0.597708
0.361036
0.358095
0.425491
0.5977
0.482671
0.597727
0.680113
0.483062
0.5977
0.358116
0.680083
0.5977
0.597697
0.585781
0.657467
0.5977
0.358586
0.424615
0.358329
0.597722
0.418425
0.359497
0.597729
0.5977
0.359273
0.5977
0.597697
0.67915
0.5977
0.597033
0.5977
0.545138
0.358101
0.548887
0.680287
0.5977
0.5977
0.5977
0.475328
0.5977
0.679802
0.597699
0.5977
0.5977
0.5977
0.416226
0.679909
0.5977
0.5977
0.680266
0.597721
0.46655
0.5977
0.5977
0.597699
0.5977
0.597696
0.5977
0.5977
0.368219
0.55301
0.516784
0.5977
0.555007
0.489942
0.534529
0.507759
0.619189
0.587444
0.5977
0.5977
0.5977
0.597702
0.597699
0.472734
0.5977
0.597714
0.670841
0.597724
0.597698
0.5977
0.679902
0.662781
0.5977
0.5977
0.459285
0.5977
0.677189
0.680292
0.5977
0.5977
0.5977
0.358082
0.5977
0.5977
0.5977
0.597699
0.597726
0.5977
0.5977
0.5977
0.597701
0.646243
0.583416
0.5977
0.5977
0.680085
0.358479
0.679719
0.597711
0.559667
0.358573
0.586891
0.679678
0.597714
0.678968
0.5977
0.358127
0.680421
0.680166
0.5977
0.597697
0.465777
0.665222
0.358463
0.358214
0.558275
0.357952
0.634308
0.500438
0.588684
0.5977
0.5977
0.68004
0.680806
0.588353
0.358467
0.360921
0.68003
0.703303
0.5977
0.608765
0.597703
0.5977
0.428545
0.597697
0.680127
0.5977
0.358071
0.5977
0.597744
0.678576
0.679714
0.597702
0.596222
0.678487
0.597699
0.679863
0.5977
0.581268
0.597696
0.5977
0.649358
0.592907
0.655474
0.671556
0.679999
0.473847
0.554455
0.539989
0.678678
0.5977
0.358337
0.5977
0.597425
0.679786
0.597725
0.405642
0.5977
0.680421
0.597701
0.400612
0.597077
0.358468
0.680402
0.597527
0.680175
0.535391
0.5977
0.597636
0.5977
0.585468
0.575923
0.5977
0.597696
0.593482
0.459485
0.493129
0.680381
0.490952
0.680583
0.597702
0.680265
0.358333
0.675103
0.5977
0.5977
0.680007
0.671912
0.680439
0.567512
0.680202
0.597698
0.649321
0.380521
0.678407
0.5977
0.431381
0.68012
0.597702
0.443108
0.5977
0.597483
0.533007
0.680164
0.6802
0.59776
0.55005
0.393135
0.568504
0.676997
0.5977
0.467257
0.378163
0.59404
0.680511
0.5977
0.5977
0.679892
0.377529
0.5977
0.5977
0.679503
0.5977
0.5977
0.5977
0.680253
0.5977
0.5977
0.597697
0.597698
0.680353
0.5977
0.5977
0.5977
0.537332
0.5977
0.597702
0.597698
0.5977
0.5977
0.5977
0.680224
0.5977
0.597718
0.680608
0.5977
0.588898
0.5977
0.59773
0.670233
0.52392
0.680535
0.5977
0.597698
0.680371
0.5977
0.596197
0.5977
0.5977
0.5977
0.597716
0.5977
0.597704
0.521658
0.558126
0.5977
0.680329
0.597703
0.358163
0.59771
0.5977
0.597582
0.640382
0.678361
0.360543
0.5977
0.597704
0.367517
0.597744
0.679796
0.680537
0.67739
0.574987
0.5977
0.5977
0.5977
0.597701
0.680409
0.596828
0.358056
0.595703
0.679918
0.5977
0.680096
0.680288
0.597698
0.5977
0.363496
0.5977
0.597703
0.5977
0.5977
0.680489
0.680208
0.5977
0.5977
0.5977
0.5977
0.358432
0.358314
0.405559
0.358735
0.5977
0.5977
0.680467
0.597709
0.362639
0.680633
0.5977
0.505241
0.597706
0.5977
0.5977
0.680218
0.680447
0.5977
0.360226
0.358463
0.55531
0.597183
0.358449
0.466619
0.680287
0.5977
0.358212
0.5977
0.676799
0.597702
0.680234
0.680668
0.468372
0.511093
0.39784
0.5977
0.5977
0.593997
0.5977
0.5977
0.626943
0.68045
0.581276
0.358122
0.597704
0.358181
0.680155
0.5977
0.680483
0.597761
0.358304
0.621667
0.680304
0.5977
0.504637
0.679606
0.680152
0.5977
0.679916
0.678954
0.568107
0.5977
0.359471
0.680668
0.680312
0.5977
0.5977
0.557889
0.597346
0.57366
0.680401
0.489711
0.526857
0.358096
0.680281
0.5977
0.358181
0.5977
0.596826
0.593982
0.5977
0.5977
0.5977
0.5977
0.586504
0.596091
0.5977
0.358107
0.5977
0.680156
0.558604
0.678102
0.498504
0.572986
0.5977
0.5977
0.5977
0.680565
0.413556
0.5977
0.54759
0.586311
0.680476
0.35806
0.5977
0.597733
0.5977
0.5977
0.568988
0.669814
0.53286
0.499823
0.5977
0.5977
0.617678
0.5977
0.5977
0.680531
0.5977
0.5977
0.5977
0.597701
0.5977
0.679984
0.597709
0.358288
0.5977
0.597702
0.5977
0.5977
0.680589
0.5977
0.5977
0.597749
0.5977
0.5977
0.555654
0.679664
0.5977
0.5977
0.680298
0.5977
0.594996
0.5977
0.5977
0.680244
0.680912
0.597719
0.705865
0.588634
0.539295
0.579419
0.44732
0.557822
0.379955
0.5977
0.5977
0.5977
0.597731
0.679043
0.533768
0.5977
0.680225
0.680131
0.5977
0.680392
0.5977
0.5977
0.5977
0.648838
0.528377
0.680091
0.680778
0.5977
0.620734
0.5977
0.597723
0.537288
0.564037
0.680016
0.358229
0.612002
0.397919
0.677367
0.470896
0.5977
0.568034
0.5977
0.678677
0.5977
0.597732
0.5977
0.680129
0.365504
0.5977
0.587527
0.592358
0.5977
0.680248
0.597591
0.680335
0.597698
0.5977
0.599602
0.68021
0.5977
0.358334
0.5977
0.679942
0.553643
0.650532
0.557475
0.5977
0.596623
0.5977
0.679781
0.358238
0.538276
0.554061
0.594617
0.680372
0.49374
0.680065
0.5977
0.5977
0.523175
0.597698
0.674894
0.681438
0.5977
0.5977
0.680924
0.655605
0.410877
0.5977
0.5977
0.41313
0.596613
0.514909
0.597701
0.59769
0.358434
0.680843
0.5977
0.5977
0.5977
0.424021
0.423677
0.652548
0.529946
0.483566
0.680278
0.593742
0.5977
0.5977
0.671593
0.656736
0.361885
0.5977
0.38579
0.597698
0.580284
0.667058
0.487195
0.597702
0.657488
0.679972
0.5977
0.597703
0.597702
0.680119
0.588003
0.67737
0.494011
0.378043
0.5977
0.680105
0.5977
0.597701
0.5977
0.680197
0.5977
0.597697
0.680392
0.59115
0.670566
0.407084
0.596729
0.597726
0.680795
0.5977
0.5977
0.680023
0.587963
0.592189
0.35831
0.5977
0.5977
0.474159
0.5977
0.557953
0.678163
0.431871
0.680294
0.358629
0.597757
0.597744
0.358141
0.5977
0.540927
0.5977
0.680144
0.5977
0.597723
0.5977
0.5977
0.5977
0.5977
0.358393
0.461164
0.406614
0.564447
0.597732
0.5977
0.59462
0.597697
0.680337
0.5977
0.510167
0.59342
0.5977
0.680193
0.3896
0.675163
0.5977
0.597701
0.679658
0.554364
0.634304
0.597702
0.59598
0.5977
0.680359
0.597431
0.597739
0.680595
0.5977
0.358411
0.680359
0.590108
0.5977
0.5977
0.659652
0.674653
0.597625
0.597701
0.5977
0.407427
0.5977
0.588961
0.597701
0.680161
0.5977
0.59776
0.592662
0.558666
0.5977
0.605593
0.679436
0.609768
0.400318
0.597732
0.597704
0.597722
0.669673
0.5977
0.5977
0.597722
0.680196
0.597697
0.680022
0.66307
0.5977
0.597728
0.532811
0.5977
0.5977
0.5977
0.5977
0.680351
0.5977
0.679796
0.55817
0.597701
0.43685
0.597726
0.672562
0.68019
0.5977
0.5977
0.525876
0.5977
0.52953
0.679742
0.5977
0.5977
0.58982
0.364229
0.659065
0.589202
0.597703
0.582772
0.679842
0.680685
0.594199
0.677949
0.5977
0.597315
0.680079
0.680997
0.5977
0.539572
0.5977
0.5977
0.5977
0.5977
0.597698
0.5977
0.597701
0.680361
0.597731
0.5977
0.59317
0.597699
0.680597
0.680078
0.597724
0.679411
0.680325
0.580544
0.5977
0.411861
0.5977
0.422778
0.573794
0.5977
0.358304
0.358419
0.526285
0.679998
0.59768
0.5977
0.680657
0.5977
0.5977
0.357937
0.597568
0.5977
0.680408
0.680477
0.5977
0.680407
0.5977
0.680646
0.68025
0.597727
0.5977
0.5977
0.5977
0.597701
0.5977
0.5977
0.593053
0.365829
0.5977
0.5977
0.680664
0.491866
0.597728
0.5977
0.6802
0.364906
0.680202
0.5977
0.558028
0.678806
0.676591
0.358469
0.595191
0.358554
0.595196
0.677429
0.5977
0.675656
0.679258
0.586249
0.430535
0.390615
0.597701
0.680297
0.5977
0.67352
0.482665
0.431055
0.500908
0.68058
0.5977
0.593341
0.67492
0.5977
0.680102
0.67787
0.5977
0.5977
0.597699
0.597362
0.362614
0.675263
0.674672
0.501573
0.5977
0.597701
0.5977
0.597722
0.5977
0.5977
0.597726
0.5977
0.5977
0.358459
0.680361
0.5977
0.358359
0.661636
0.477004
0.680048
0.5977
0.597686
0.534991
0.5977
0.5977
0.59772
0.597699
0.680379
0.597707
0.680254
0.679897
0.592859
0.5977
0.5977
0.680171
0.5977
0.680274
0.597698
0.679885
0.565828
0.528482
0.67772
0.680169
0.680405
0.59773
0.680256
0.5977
0.673839
0.468672
0.483326
0.358535
0.680657
0.404729
0.490414
0.582495
0.5977
0.484924
0.597721
0.5977
0.674181
0.358511
0.680381
0.680479
0.680887
0.439226
0.680004
0.5977
0.680447
0.597699
0.5977
0.425658
0.365467
0.680525
0.365109
0.5977
0.5977
0.561548
0.358555
0.597713
0.436885
0.5977
0.556807
0.597728
0.679392
0.68001
0.5977
0.358477
0.554051
0.59771
0.5977
0.358274
0.558224
0.5977
0.680423
0.67994
0.375278
0.5977
0.571718
0.5977
0.5977
0.597699
0.5977
0.5977
0.5977
0.5977
0.671126
0.395343
0.5977
0.494476
0.5977
0.5977
0.679347
0.358565
0.5977
0.5977
0.680073
0.680214
0.362699
0.680872
0.5977
0.5977
0.5977
0.597724
0.361083
0.597722
0.680169
0.680342
0.5977
0.597702
0.597704
0.67724
0.5977
0.680169
0.680261
0.678649
0.592426
0.680453
0.5977
0.597701
0.597696
0.68048
0.680418
0.680568
0.68002
0.680207
0.5977
0.358337
0.58862
0.5977
0.358375
0.5977
0.680547
0.51683
0.5977
0.680698
0.597701
0.675536
0.597694
0.680366
0.597749
0.519383
0.680459
0.592167
0.680426
0.452104
0.679068
0.680553
0.5977
0.680566
0.582378
0.680506
0.597704
0.5977
0.5977
0.5977
0.375701
0.665046
0.486331
0.358422
0.5977
0.5977
0.596392
0.5977
0.680219
0.573403
0.680477
0.5977
0.525135
0.609396
0.5977
0.35823
0.680475
0.595583
0.5977
0.5977
0.5977
0.665966
0.5977
0.5977
0.5977
0.680328
0.5977
0.597702
0.5977
0.708107
0.597702
0.5977
0.574927
0.385307
0.5977
0.680046
0.597725
0.5977
0.6801
0.5977
0.680207
0.5977
0.5977
0.5977
0.390941
0.679921
0.5977
0.5977
0.5977
0.597293
0.60702
0.680455
0.358569
0.505015
0.628271
0.5977
0.5977
0.68036
0.680486
0.680304
0.5977
0.5977
0.5977
0.5977
0.597704
0.510365
0.597662
0.498936
0.597698
0.61012
0.5977
0.5977
0.59181
0.5977
0.597656
0.674112
0.621652
0.460667
0.597699
0.647741
0.6804
0.597695
0.577882
0.560572
0.558235
0.587653
0.5977
0.435477
0.358382
0.587733
0.5977
0.358345
0.697392
0.680435
0.5977
0.399143
0.597701
0.5977
0.5977
0.597701
0.366105
0.596418
0.561633
0.358168
0.680331
0.358349
0.5977
0.597708
0.680779
0.402527
0.64619
0.672481
0.430247
0.5977
0.597729
0.59426
0.594999
0.5977
0.582572
0.5977
0.422784
0.5977
0.362741
0.680351
0.680156
0.5977
0.597703
0.597697
0.596905
0.68045
0.677737
0.5977
0.5977
0.363529
0.5977
0.49648
0.5977
0.597728
0.587838
0.5977
0.5977
0.597143
0.5977
0.5977
0.527339
0.511393
0.50851
0.5977
0.5977
0.680185
0.389732
0.594613
0.680411
0.597698
0.597159
0.5977
0.5977
0.358254
0.586392
0.673798
0.5977
0.5977
0.557186
0.5977
0.68025
0.590106
0.597714
0.679744
0.680666
0.5977
0.5977
0.597698
0.597699
0.432409
0.67781
0.5977
0.5977
0.5977
0.55673
0.5977
0.368421
0.680059
0.630496
0.359369
0.597699
0.5977
0.5977
0.608208
0.597701
0.5977
0.679815
0.588602
0.456541
0.58987
0.501946
0.375207
0.5977
0.680265
0.5977
0.363291
0.358361
0.5977
0.595613
0.680047
0.5977
0.358033
0.597702
0.680747
0.592793
0.5977
0.5977
0.59764
0.680734
0.5977
0.358207
0.415805
0.5977
0.358504
0.5977
0.5977
0.68045
0.68009
0.59773
0.358521
0.557989
0.366597
0.680642
0.5977
0.358455
0.543117
0.466075
0.680557
0.470469
0.558228
0.5977
0.5977
0.585014
0.5977
0.663804
0.67939
0.403913
0.666694
0.5977
0.597751
0.679889
0.706171
0.39557
0.358107
0.602893
0.374976
0.375725
0.593444
0.597708
0.680515
0.5977
0.5977
0.5977
0.595529
0.679862
0.680097
0.394823
0.597697
0.5977
0.611794
0.5977
0.594608
0.597696
0.680464
0.672294
0.5977
0.5977
0.5977
0.5977
0.676482
0.592874
0.597702
0.674701
0.680118
0.569651
0.679437
0.55795
0.672239
0.632933
0.679518
0.553872
0.680243
0.597738
0.589422
0.597727
0.680375
0.680347
0.5977
0.597702
0.5977
0.532241
0.435563
0.597713
0.397065
0.597702
0.390918
0.395454
0.5977
0.578401
0.5977
0.426646
0.592903
0.654209
0.358323
0.597698
0.5977
0.680249
0.550521
0.680283
0.595062
0.446773
0.59013
0.5977
0.5977
0.5977
0.590617
0.5977
0.358107
0.679936
0.5977
0.597726
0.680542
0.680708
0.5977
0.358278
0.5977
0.584348
0.597701
0.680333
0.680158
0.358295
0.595846
0.680143
0.597702
0.5977
0.679998
0.358285
0.358189
0.680443
0.5977
0.597703
0.5977
0.358317
0.5977
0.597703
0.597728
0.597737
0.528824
0.5977
0.679985
0.599661
0.512249
0.5977
0.680471
0.5977
0.5977
0.5977
0.5977
0.358506
0.360727
0.681001
0.358124
0.358542
0.679868
0.609573
0.466367
0.5977
0.461221
0.612819
0.597698
0.635906
0.680484
0.5977
0.68053
0.560044
0.361847
0.597632
0.680471
0.635408
0.5977
0.5977
0.5977
0.597726
0.680121
0.390215
0.680572
0.597697
0.680072
0.5977
0.427059
0.570819
0.358137
0.358488
0.58893
0.5977
0.597702
0.398974
0.680048
0.5977
0.597715
0.530226
0.586753
0.358328
0.677065
0.597698
0.5977
0.5977
0.679976
0.679949
0.513904
0.5977
0.680707
0.672888
0.358203
0.5977
0.5977
0.5977
0.680212
0.5977
0.710493
0.597375
0.589162
0.680472
0.676543
0.680388
0.680812
0.358349
0.5977
0.358065
0.5977
0.67993
0.596945
0.671842
0.5977
0.589868
0.597702
0.358182
0.597711
0.678665
0.5977
0.619162
0.364845
0.596843
0.5977
0.597696
0.400369
0.65632
0.679902
0.597698
0.546255
0.5977
0.586735
0.35816
0.5977
0.656558
0.5977
0.453196
0.35832
0.593461
0.5977
0.584587
0.663125
0.5977
0.680079
0.5977
0.676871
0.363748
0.677633
0.5977
0.672567
0.5977
0.597729
0.399492
0.565254
0.5977
0.589615
0.597698
0.5977
0.5977
0.5977
0.680398
0.542761
0.5977
0.671685
0.5977
0.408295
0.417625
0.597699
0.667544
0.597703
0.5977
0.5977
0.680479
0.358236
0.5977
0.647051
0.590301
0.414159
0.5977
0.593851
0.5977
0.577971
0.678332
0.678399
0.549976
0.679391
0.5977
0.55794
0.5977
0.558193
0.679809
0.5977
0.680193
0.680769
0.680029
0.679177
0.5977
0.638768
0.484856
0.681017
0.559135
0.358633
0.576681
0.58355
0.358508
0.406166
0.63027
0.597698
0.497789
0.5977
0.678773
0.597701
0.5977
0.5977
0.5977
0.680603
0.597734
0.5977
0.680388
0.597722
0.561728
0.362545
0.5977
0.5977
0.358449
0.5977
0.584066
0.679614
0.5977
0.451273
0.5977
0.5977
0.597699
0.679859
0.544998
0.5977
0.597697
0.679018
0.5977
0.5977
0.655312
0.5977
0.5977
0.358021
0.675842
0.589374
0.567277
0.597758
0.680582
0.358501
0.5977
0.398368
0.5977
0.562801
0.679722
0.591613
0.596911
0.359194
0.680239
0.679153
0.588922
0.604741
0.481959
0.590244
0.5977
0.585061
0.5977
0.597703
0.5977
0.590895
0.5977
0.5977
0.611942
0.5977
0.5977
0.597724
0.5977
0.679147
0.578634
0.680422
0.674376
0.5977
0.5977
0.550179
0.5977
0.358306
0.597701
0.588383
0.680371
0.59062
0.677029
0.642829
0.597719
0.6574
0.358344
0.4014
0.680471
0.632992
0.5977
0.665253
0.619592
0.358093
0.5977
0.679002
0.677745
0.597755
0.5977
0.5977
0.397708
0.680537
0.679694
0.676814
0.679712
0.597728
0.5977
0.5977
0.560039
0.674952
0.591283
0.5977
0.677935
0.597732
0.5977
0.5977
0.5977
0.67786
0.418025
0.597718
0.680074
0.647646
0.580272
0.597697
0.579817
0.581449
0.495952
0.596767
0.597708
0.358403
0.679346
0.556167
0.453847
0.5977
0.5977
0.555619
0.5977
0.358568
0.680599
0.5977
0.5977
0.597702
0.5977
0.5977
0.680086
0.5977
0.597616
0.545325
0.617626
0.68031
0.46575
0.358692
0.5977
0.5977
0.5977
0.591936
0.679981
0.590379
0.59737
0.5977
0.677483
0.680243
0.659846
0.358258
0.679876
0.5977
0.5977
0.5977
0.464448
0.571878
0.499213
0.5977
0.5977
0.5977
0.35929
0.597698
0.668064
0.593109
0.597699
0.680935
0.67726
0.5977
0.68048
0.597726
0.577406
0.567631
0.5977
0.583858
0.680566
0.567988
0.680427
0.680248
0.680541
0.597697
0.5977
0.5977
0.679501
0.525858
0.366115
0.680055
0.597367
0.5977
0.680287
0.632361
0.5977
0.358227
0.5977
0.597703
0.5977
0.679804
0.597702
0.5977
0.597699
0.597698
0.676898
0.5977
0.5977
0.358136
0.5977
0.678637
0.5977
0.58492
0.5977
0.5977
0.596843
0.597702
0.358213
0.363386
0.680326
0.5977
0.5977
0.680377
0.659038
0.59616
0.680416
0.680623
0.597702
0.35837
0.5977
0.358203
0.679673
0.648847
0.5977
0.5977
0.680283
0.597715
0.5977
0.597703
0.358738
0.5977
0.597729
0.679898
0.531437
0.5977
0.597703
0.680225
0.358242
0.558145
0.677089
0.371367
0.5977
0.589167
0.67285
0.358101
0.415857
0.545742
0.5977
0.680422
0.597716
0.597714
0.594518
0.589344
0.5977
0.5977
0.358418
0.5977
0.358415
0.597703
0.364587
0.5977
0.679761
0.597698
0.5977
0.409484
0.680274
0.481385
0.366754
0.597702
0.59772
0.5977
0.5977
0.543381
0.597619
0.680324
0.668904
0.5977
0.597726
0.5977
0.597745
0.361031
0.659484
0.680504
0.5977
0.358392
0.5977
0.5977
0.597703
0.5977
0.5977
0.5977
0.5977
0.597696
0.59716
0.593044
0.5977
0.673819
0.597731
0.5977
0.357951
0.592622
0.584361
0.359629
0.597398
0.679841
0.594959
0.597701
0.593354
0.597703
0.5977
0.597732
0.557894
0.372408
0.57283
0.358128
0.591318
0.679927
0.369918
0.533787
0.680299
0.597729
0.5977
0.5977
0.5977
0.5977
0.5977
0.5977
0.5977
0.680286
0.679748
0.590483
0.590536
0.5977
0.597701
0.680436
0.597558
0.521318
0.5977
0.5977
0.597735
0.597717
0.358407
0.5977
0.5977
0.5977
0.5977
0.579082
0.597697
0.5977
0.5977
0.38045
0.5977
0.358241
0.5977
0.5977
0.679917
0.636769
0.679212
0.593955
0.574574
0.554814
0.653359
0.5977
0.669502
0.514697
0.470739
0.5977
0.570053
0.597723
0.680387
0.659719
0.5977
0.5977
0.680158
0.597715
0.555847
0.5977
0.5977
0.596013
0.5977
0.5977
0.55646
0.597743
0.5977
0.5977
0.5977
0.5977
0.679722
0.648429
0.594522
0.660818
0.668637
0.371395
0.633734
0.679786
0.594423
0.376019
0.3582
0.470893
0.5977
0.358539
0.503245
0.680111
0.597704
0.399475
0.597593