# vtk DataFile Version 1.0
unstructured grid
ascii
DATASET UNSTRUCTURED_GRID
points 13672 float
0.0796578 -0.059106 0
0.00128732 0.00159165 0
0.00227961 -0.00102548 0
0.0791586 -0.0598787 0
-0.0546216 0.01 0
0.000495206 0.025 0
0.0800549 -0.035 0
0.135172 -0.08 0
-0.0546216 -0.0451168 0
0.000495206 -0.0301168 0
0.0800549 -0.0901168 0
0.135172 -0.135117 0
-0.0546216 -0.0451168 -0.00551168
0.000495206 -0.0301168 -0.00551168
0.0800549 -0.0901168 -0.00551168
0.135172 -0.135117 -0.00551168
0.135172 -0.08 -0.00551168
0.0800549 -0.035 -0.00551168
0.000495206 0.025 -0.00551168
-0.0546216 0.01 -0.00551168
0.00128732 0.00159165 -0.00551168
0.00227961 -0.00102548 -0.00551168
0.0791586 -0.0598787 -0.00551168
0.0796578 -0.059106 -0.00551168
0.00165953 -0.000990923 0
0.00119576 -0.000874076 0
0.000866021 -0.000641801 0
0.000645147 -0.000349912 0
0.00052235 -1.7281e-05 0
0.00049972 0.000348016 0
0.000601632 0.000737716 0
0.000861774 0.0011403 0
0.00157235 0.00183217 0
0.00188647 0.00206725 0
0.00222612 0.00230203 0
0.00258713 0.00254351 0
0.00296826 0.00279524 0
0.00337118 0.00305664 0
0.00379785 0.00332658 0
0.00425045 0.00360349 0
0.00473139 0.00388521 0
0.0052432 0.00416895 0
0.0057881 0.00445204 0
0.00636753 0.00473281 0
0.00698281 0.00500961 0
0.00763526 0.00528058 0
0.00832616 0.00554366 0
0.00905691 0.00579603 0
0.00982918 0.00603333 0
0.0106445 0.00625033 0
0.0115038 0.00644128 0
0.0124073 0.00660297 0
0.0133543 0.00673414 0
0.0143444 0.00683382 0
0.0153769 0.00690031 0
0.0164512 0.00693173 0
0.0175666 0.00692547 0
0.0187219 0.00687822 0
0.0199156 0.00678477 0
0.0211454 0.00663864 0
0.0224084 0.00643275 0
0.0237018 0.00616676 0
0.0250249 0.00584739 0
0.026375 0.00547298 0
0.0277479 0.00503752 0
0.0291386 0.00453545 0
0.0305433 0.0039653 0
0.0319572 0.0033256 0
0.0333681 0.00260019 0
0.034775 0.00179799 0
0.0361793 0.000930615 0
0.0375798 3.12222e-06 0
0.0389689 -0.000988429 0
0.0403357 -0.00205109 0
0.041675 -0.00318283 0
0.0429849 -0.00437751 0
0.0442643 -0.00562904 0
0.0455126 -0.00693089 0
0.0467314 -0.00827518 0
0.0479204 -0.00965638 0
0.0490661 -0.0110799 0
0.0501515 -0.0125519 0
0.0511696 -0.0140695 0
0.0521492 -0.0156071 0
0.0531202 -0.0171411 0
0.0540851 -0.0186663 0
0.0550431 -0.0201798 0
0.0559923 -0.0216793 0
0.0569311 -0.0231626 0
0.0578582 -0.0246273 0
0.0587723 -0.0260715 0
0.0596721 -0.027493 0
0.0605563 -0.02889 0
0.0614241 -0.0302609 0
0.0622742 -0.0316042 0
0.063106 -0.0329183 0
0.0639186 -0.034202 0
0.0647113 -0.0354543 0
0.0654835 -0.0366743 0
0.0662345 -0.0378613 0
0.0669642 -0.0390145 0
0.0676726 -0.0401333 0
0.0683597 -0.0412172 0
0.0690246 -0.0422665 0
0.0696662 -0.0432819 0
0.0702841 -0.0442636 0
0.0708793 -0.0452111 0
0.0714538 -0.0461237 0
0.072009 -0.047001 0
0.0725452 -0.0478434 0
0.0730611 -0.0486524 0
0.073556 -0.0494294 0
0.0740291 -0.0501756 0
0.0744812 -0.0508916 0
0.0749138 -0.0515773 0
0.0753285 -0.0522331 0
0.0757266 -0.0528592 0
0.076109 -0.0534564 0
0.0764753 -0.0540264 0
0.0768243 -0.054571 0
0.0771553 -0.0550919 0
0.0774679 -0.0555901 0
0.0777617 -0.0560669 0
0.0780369 -0.056523 0
0.0782958 -0.0569578 0
0.0785421 -0.0573703 0
0.0787786 -0.0577603 0
0.0790073 -0.0581279 0
0.0792295 -0.058474 0
0.0794462 -0.0587995 0
0.0798803 -0.0594162 0
0.0800272 -0.0596588 0
0.0800357 -0.0598891 0
0.0799275 -0.0600784 0
0.0797205 -0.0601773 0
0.0794593 -0.0601051 0
0.0789155 -0.0596491 0
0.0786707 -0.0593963 0
0.0784111 -0.0591319 0
0.0781372 -0.0588542 0
0.0778566 -0.0585548 0
0.0775715 -0.0582308 0
0.0772803 -0.0578828 0
0.0769832 -0.0575099 0
0.0766822 -0.0571097 0
0.0763801 -0.0566796 0
0.0760759 -0.0562196 0
0.0757623 -0.0557337 0
0.0754359 -0.0552232 0
0.0750951 -0.0546879 0
0.0747379 -0.054128 0
0.0743626 -0.0535435 0
0.0739688 -0.0529338 0
0.0735559 -0.0522981 0
0.0731238 -0.0516357 0
0.0726718 -0.050946 0
0.0721991 -0.0502288 0
0.0717046 -0.049484 0
0.0711872 -0.0487117 0
0.0706461 -0.047912 0
0.0700804 -0.0470849 0
0.0694892 -0.0462308 0
0.0688718 -0.0453499 0
0.0682271 -0.0444431 0
0.0675544 -0.043511 0
0.0668527 -0.0425546 0
0.0661215 -0.0415748 0
0.06536 -0.040573 0
0.0645676 -0.0395504 0
0.0637439 -0.0385087 0
0.0628887 -0.0374493 0
0.062002 -0.0363741 0
0.0610838 -0.0352847 0
0.0601345 -0.0341831 0
0.0591547 -0.033071 0
0.0581456 -0.0319502 0
0.0571083 -0.0308224 0
0.0560444 -0.0296893 0
0.0549562 -0.028552 0
0.053845 -0.0274126 0
0.0527113 -0.0262746 0
0.051554 -0.0251427 0
0.0503724 -0.0240222 0
0.0491675 -0.0229164 0
0.047941 -0.0218282 0
0.0466955 -0.0207597 0
0.0454337 -0.0197126 0
0.0441592 -0.0186878 0
0.0428751 -0.0176863 0
0.0415841 -0.0167097 0
0.0402878 -0.0157609 0
0.0389879 -0.0148428 0
0.0376864 -0.0139575 0
0.0363853 -0.013107 0
0.0350871 -0.0122931 0
0.0337942 -0.0115164 0
0.0325095 -0.0107772 0
0.0312357 -0.0100756 0
0.0299758 -0.00941024 0
0.0287337 -0.00877784 0
0.0275126 -0.00817571 0
0.0263139 -0.00760375 0
0.0251376 -0.00706528 0
0.0239829 -0.0065649 0
0.0228537 -0.00609619 0
0.0217522 -0.00565563 0
0.0206795 -0.00524226 0
0.0196364 -0.00485507 0
0.0186233 -0.00449318 0
0.0176408 -0.00415577 0
0.016689 -0.00384204 0
0.0157682 -0.00355115 0
0.0148783 -0.00328218 0
0.0140192 -0.00303468 0
0.0131906 -0.00280795 0
0.0123925 -0.00260016 0
0.0116246 -0.00241012 0
0.0108864 -0.00223769 0
0.0101774 -0.00208212 0
0.00949701 -0.00194206 0
0.00884483 -0.0018163 0
0.0082202 -0.0017039 0
0.00762247 -0.00160391 0
0.00705097 -0.00151528 0
0.006505 -0.00143697 0
0.0059838 -0.00136806 0
0.00548662 -0.00130772 0
0.00501265 -0.00125519 0
0.00456114 -0.00120954 0
0.00413136 -0.00116914 0
0.00372257 -0.00113251 0
0.00333398 -0.00109853 0
0.00296466 -0.00106798 0
0.00261363 -0.0010431 0
-0.052721 -0.0445996 0
-0.0508204 -0.0440823 0
-0.0489199 -0.0435651 0
-0.0470193 -0.0430478 0
-0.0451187 -0.0425306 0
-0.0432181 -0.0420134 0
-0.0413175 -0.0414961 0
-0.039417 -0.0409789 0
-0.0375164 -0.0404616 0
-0.0356158 -0.0399444 0
-0.0337152 -0.0394271 0
-0.0318146 -0.0389099 0
-0.0299141 -0.0383927 0
-0.0280135 -0.0378754 0
-0.0261129 -0.0373582 0
-0.0242123 -0.0368409 0
-0.0223117 -0.0363237 0
-0.0204112 -0.0358065 0
-0.0185106 -0.0352892 0
-0.01661 -0.034772 0
-0.0147094 -0.0342547 0
-0.0128088 -0.0337375 0
-0.0109083 -0.0332202 0
-0.00900769 -0.032703 0
-0.00710711 -0.0321858 0
-0.00520653 -0.0316685 0
-0.00330595 -0.0311513 0
-0.00140537 -0.030634 0
0.00190689 -0.0299614 0
0.00332271 -0.0298498 0
0.00474133 -0.0297825 0
0.00616136 -0.0297597 0
0.0075814 -0.0297814 0
0.00900007 -0.0298477 0
0.010416 -0.0299583 0
0.0118278 -0.0301127 0
0.0132342 -0.0303103 0
0.0146339 -0.0305504 0
0.0160259 -0.0308322 0
0.0174091 -0.0311546 0
0.0187824 -0.0315166 0
0.020145 -0.031917 0
0.0214961 -0.0323546 0
0.0228351 -0.032828 0
0.0241613 -0.0333361 0
0.0254744 -0.0338774 0
0.0267738 -0.0344507 0
0.0280592 -0.0350545 0
0.0293306 -0.0356877 0
0.0305875 -0.0363488 0
0.0318301 -0.0370367 0
0.0330581 -0.0377501 0
0.0342717 -0.0384879 0
0.0354708 -0.0392489 0
0.0366556 -0.0400321 0
0.0378262 -0.0408363 0
0.0389828 -0.0416607 0
0.0401254 -0.0425042 0
0.0412543 -0.0433659 0
0.0423698 -0.0442451 0
0.043472 -0.0451408 0
0.0445612 -0.0460523 0
0.0456375 -0.0469789 0
0.0467013 -0.0479199 0
0.0477529 -0.0488746 0
0.0487923 -0.0498424 0
0.04982 -0.0508227 0
0.0508362 -0.051815 0
0.051841 -0.0528187 0
0.0528348 -0.0538333 0
0.0538178 -0.0548584 0
0.0547903 -0.0558935 0
0.0557524 -0.0569382 0
0.0567045 -0.0579922 0
0.0576467 -0.0590549 0
0.0585792 -0.0601261 0
0.0595024 -0.0612055 0
0.0604163 -0.0622926 0
0.0613212 -0.0633873 0
0.0622174 -0.0644891 0
0.0631049 -0.0655979 0
0.0639841 -0.0667134 0
0.064855 -0.0678353 0
0.0657179 -0.0689633 0
0.0665729 -0.0700974 0
0.0674202 -0.0712372 0
0.06826 -0.0723826 0
0.0690925 -0.0735333 0
0.0699178 -0.0746892 0
0.070736 -0.0758501 0
0.0715473 -0.0770159 0
0.0723518 -0.0781863 0
0.0731498 -0.0793612 0
0.0739412 -0.0805405 0
0.0747264 -0.081724 0
0.0755053 -0.0829116 0
0.0762781 -0.0841033 0
0.0770449 -0.0852987 0
0.0778059 -0.0864979 0
0.0785611 -0.0877007 0
0.0793108 -0.088907 0
0.0814681 -0.0912706 0
0.0828814 -0.0924245 0
0.0842946 -0.0935783 0
0.0857079 -0.0947322 0
0.0871211 -0.095886 0
0.0885344 -0.0970399 0
0.0899476 -0.0981937 0
0.0913609 -0.0993476 0
0.0927741 -0.100501 0
0.0941874 -0.101655 0
0.0956006 -0.102809 0
0.0970139 -0.103963 0
0.0984272 -0.105117 0
0.0998404 -0.106271 0
0.101254 -0.107424 0
0.102667 -0.108578 0
0.10408 -0.109732 0
0.105493 -0.110886 0
0.106907 -0.11204 0
0.10832 -0.113194 0
0.109733 -0.114348 0
0.111146 -0.115501 0
0.11256 -0.116655 0
0.113973 -0.117809 0
0.115386 -0.118963 0
0.116799 -0.120117 0
0.118213 -0.121271 0
0.119626 -0.122424 0
0.121039 -0.123578 0
0.122452 -0.124732 0
0.123866 -0.125886 0
0.125279 -0.12704 0
0.126692 -0.128194 0
0.128105 -0.129348 0
0.129519 -0.130501 0
0.130932 -0.131655 0
0.132345 -0.132809 0
0.133758 -0.133963 0
0.135172 -0.133216 0
0.135172 -0.131316 0
0.135172 -0.129415 0
0.135172 -0.127514 0
0.135172 -0.125614 0
0.135172 -0.123713 0
0.135172 -0.121813 0
0.135172 -0.119912 0
0.135172 -0.118012 0
0.135172 -0.116111 0
0.135172 -0.11421 0
0.135172 -0.11231 0
0.135172 -0.110409 0
0.135172 -0.108509 0
0.135172 -0.106608 0
0.135172 -0.104708 0
0.135172 -0.102807 0
0.135172 -0.100906 0
0.135172 -0.0990058 0
0.135172 -0.0971052 0
0.135172 -0.0952046 0
0.135172 -0.0933041 0
0.135172 -0.0914035 0
0.135172 -0.0895029 0
0.135172 -0.0876023 0
0.135172 -0.0857017 0
0.135172 -0.0838012 0
0.135172 -0.0819006 0
0.133758 -0.0788462 0
0.132345 -0.0776923 0
0.130932 -0.0765385 0
0.129519 -0.0753846 0
0.128105 -0.0742308 0
0.126692 -0.0730769 0
0.125279 -0.0719231 0
0.123866 -0.0707692 0
0.122452 -0.0696154 0
0.121039 -0.0684615 0
0.119626 -0.0673077 0
0.118213 -0.0661538 0
0.116799 -0.065 0
0.115386 -0.0638462 0
0.113973 -0.0626923 0
0.11256 -0.0615385 0
0.111146 -0.0603846 0
0.109733 -0.0592308 0
0.10832 -0.0580769 0
0.106907 -0.0569231 0
0.105493 -0.0557692 0
0.10408 -0.0546154 0
0.102667 -0.0534615 0
0.101254 -0.0523077 0
0.0998404 -0.0511538 0
0.0984272 -0.05 0
0.0970139 -0.0488462 0
0.0956006 -0.0476923 0
[...]
CELL_DATA 13116
SCALARS rho float
LOOKUP_TABLE default
0.624745
0.698433
0.320811
0.700686
0.700124
0.695238
0.318325
0.701124
0.59569
0.700452
0.324486
0.28231
0.700076
0.30256
0.299997
0.695032
0.618892
0.702161
0.69175
0.341264
0.62655
0.314548
0.306974
0.702068
0.651744
0.70006
0.700579
0.318918
0.6429
0.69024
0.561517
0.288052
0.618603
0.446984
0.317358
0.624091
0.708222
0.694902
0.690171
0.699063
0.690573
0.701134
0.469273
0.324704
0.691197
0.691889
0.701738
0.691809
0.303215
0.591824
0.700368
0.465824
0.311554
0.610895
0.618322
0.637819
0.325243
0.702267
0.612904
0.293369
0.304916
0.700258
0.698255
0.688543
0.561942
0.324963
0.695266
0.706104
0.696317
0.581614
0.301847
0.629325
0.317583
0.323508
0.561613
0.324289
0.705969
0.700348
0.3243
0.703798
0.706826
0.70016
0.701981
0.692285
0.700834
0.416712
0.323662
0.702322
0.699944
0.34152
0.290647
0.698057
0.701909
0.70016
0.698607
0.655543
0.654208
0.562149
0.561845
0.63914
0.705417
0.694045
0.690923
0.415595
0.699583
0.27635
0.357553
0.508809
0.316966
0.651912
0.549474
0.699752
0.652786
0.705918
0.703625
0.696679
0.318819
0.381441
0.700263
0.698031
0.705798
0.320779
0.696844
0.29017
0.700599
0.427734
0.322369
0.48707
0.319678
0.601793
0.700061
0.707105
0.4875
0.308676
0.435357
0.662141
0.558933
0.697948
0.704916
0.698132
0.694605
0.70158
0.489474
0.695142
0.701159
0.280239
0.318296
0.699621
0.700681
0.700027
0.60655
0.692569
0.691684
0.326485
0.700503
0.700759
0.305861
0.705333
0.56338
0.70163
0.702055
0.324304
0.702094
0.309486
0.322136
0.700356
0.700429
0.702601
0.317618
0.419499
0.393972
0.560475
0.297895
0.481111
0.696458
0.304835
0.307717
0.316804
0.699699
0.689896
0.337647
0.412461
0.588783
0.707471
0.689985
0.611612
0.332166
0.696455
0.699191
0.449512
0.705505
0.699455
0.599463
0.299885
0.699125
0.690226
0.701092
0.695038
0.700015
0.377599
0.417237
0.657427
0.469237
0.317241
0.701472
0.693247
0.473091
0.661953
0.284044
0.330208
0.325539
0.693286
0.305832
0.343468
0.336361
0.326426
0.371337
0.688491
0.700664
0.421987
0.326204
0.694714
0.541305
0.337242
0.601156
0.700051
0.701495
0.319239
0.696208
0.365945
0.70217
0.288962
0.607695
0.620888
0.563324
0.699809
0.633441
0.291122
0.423206
0.700167
0.562322
0.690121
0.559001
0.651714
0.701084
0.308412
0.699328
0.700222
0.562063
0.322877
0.304822
0.692685
0.700113
0.574081
0.700072
0.616547
0.705677
0.325213
0.294347
0.380852
0.280679
0.69907
0.701148
0.702535
0.326224
0.701079
0.333062
0.393552
0.699662
0.327187
0.700096
0.700537
0.561122
0.702305
0.291472
0.560698
0.706236
0.561421
0.697739
0.327682
0.330641
0.302431
0.657974
0.320029
0.31369
0.341577
0.329559
0.69675
0.306157
0.700001
0.700407
0.336532
0.340951
0.333719
0.429193
0.32059
0.701872
0.683557
0.699776
0.327826
0.690921
0.621203
0.300216
0.29482
0.694253
0.699916
0.69339
0.332019
0.690262
0.42549
0.706859
0.700901
0.699614
0.700862
0.30137
0.69549
0.293759
0.696686
0.699962
0.697449
0.341576
0.337402
0.700096
0.331612
0.700853
0.700276
0.355762
0.705195
0.701984
0.334154
0.701031
0.70188
0.268712
0.699738
0.427694
0.611509
0.702101
0.436389
0.705017
0.327673
0.702245
0.345765
0.675733
0.698122
0.701027
0.318349
0.361498
0.700889
0.32547
0.701304
0.699315
0.407235
0.560438
0.330356
0.316282
0.702318
0.605775
0.706626
0.329319
0.307427
0.699214
0.70038
0.319824
0.700114
0.315855
0.27423
0.697816
0.701726
0.523815
0.3539
0.698005
0.562581
0.69446
0.700706
0.702024
0.606491
0.330062
0.287284
0.338476
0.694055
0.338353
0.586329
0.360101
0.296004
0.356998
0.533587
0.117633
0.326429
0.700877
0.289961
0.702019
0.64264
0.691604
0.69649
0.699654
0.316846
0.332595
0.382767
0.331734
0.70254
0.650768
0.69093
0.643639
0.701033
0.673009
0.699994
0.69437
0.689143
0.702371
0.704126
0.695267
0.384669
0.472975
0.620346
0.313652
0.681467
0.638151
0.313219
0.696394
0.561761
0.302417
0.34108
0.339758
0.332648
0.661978
0.310812
0.300297
0.693989
0.32884
0.621432
0.345785
0.694398
0.708698
0.322045
0.309646
0.702592
0.426022
0.351669
0.333428
0.344102
0.316001
0.334096
0.342356
0.318844
0.398411
0.330743
0.693484
0.326006
0.700187
0.359098
0.289346
0.498587
0.26965
0.339765
0.276074
0.698712
0.406999
0.672217
0.524929
0.328861
0.665374
0.700089
0.404499
0.705159
0.677787
0.680489
0.336567
0.563783
0.382793
0.702064
0.562289
0.31014
0.306711
0.699052
0.334241
0.433027
0.69889
0.35734
0.70558
0.700401
0.339571
0.307817
0.301117
0.478073
0.295076
0.295929
0.299494
0.293674
0.700707
0.700551
0.435183
0.642144
0.440543
0.699385
0.361459
0.316877
0.603767
0.310996
0.696561
0.326649
0.369032
0.477311
0.691508
0.700521
0.608476
0.352751
0.308817
0.605766
0.700961
0.632171
0.603979
0.70131
0.699138
0.333032
0.709239
0.618651
0.699302
0.34151
0.320767
0.706011
0.701279
0.695118
0.700234
0.700165
0.700279
0.702129
0.69746
0.691382
0.337171
0.692266
0.366439
0.284989
0.3452
0.700624
0.692957
0.337127
0.70064
0.656604
0.342812
0.670629
0.699699
0.703628
0.318738
0.318117
0.700624
0.354363
0.353397
0.269628
0.334336
0.692843
0.285127
0.700323
0.325179
0.698811
0.700176
0.693952
0.700236
0.354337
0.340401
0.693158
0.702675
0.713641
0.700638
0.700305
0.487557
0.33541
0.31308
0.690495
0.604768
0.341871
0.4263
0.295231
0.700799
0.697913
0.340242
0.315989
0.700361
0.442935
0.700533
0.686408
0.319814
0.36584
0.713097
0.563025
0.310857
0.700435
0.70044
0.692965
0.322422
0.560957
0.32577
0.562964
0.698219
0.355781
0.36849
0.315124
0.560016
0.318008
0.32168
0.384653
0.683881
0.70489
0.322308
0.291465
0.337447
0.67824
0.318788
0.690065
0.285503
0.631196
0.700098
0.362473
0.309265
0.30798
0.489742
0.314234
0.700627
0.330903
0.313946
0.690948
0.303456
0.693609
0.700779
0.56276
0.342645
0.697318
0.701819
0.701123
0.690524
0.70129
0.697628
0.285151
0.601733
0.424789
0.694811
0.329131
0.700936
0.512786
0.315414
0.553877
0.701288
0.321478
0.694811
0.290936
0.303527
0.693902
0.698911
0.293991
0.280895
0.323379
0.282498
0.701076
0.70199
0.322306
0.338076
0.701406
0.698194
0.632941
0.701866
0.697782
0.324973
0.700976
0.399403
0.700248
0.387568
0.646634
0.444449
0.694811
0.706679
0.621073
0.357073
0.317826
0.69785
0.643272
0.608617
0.701964
0.283479
0.706925
0.700637
0.394445
0.470397
0.701597
0.356191
0.56324
0.700871
0.332145
0.698336
0.697015
0.319653
0.705584
0.301805
0.700195
0.325411
0.692689
0.698882
0.317184
0.68973
0.702068
0.70058
0.657987
0.711094
0.622475
0.32198
0.421731
0.289339
0.321234
0.559686
0.602232
0.697225
0.700756
0.33882
0.325305
0.708696
0.700257
0.702402
0.700658
0.336868
0.703992
0.700182
0.341573
0.291884
0.700349
0.692494
0.7004
0.280301
0.626472
0.322514
0.70594
0.700557
0.618825
0.696955
0.338422
0.694416
0.699979
0.701885
0.699064
0.69041
0.425318
0.702207
0.330345
0.700337
0.700139
0.420763
0.700483
0.650008
0.700048
0.427039
0.401942
0.625044
0.688607
0.354528
0.355629
0.327712
0.330939
0.698306
0.707095
0.646726
0.333468
0.328771
0.69554
0.705246
0.274443
0.325711
0.428986
0.712065
0.696739
0.700347
0.703318
0.331011
0.354687
0.560006
0.289741
0.342925
0.329536
0.689841
0.322182
0.350589
0.633808
0.693653
0.699732
0.693524
0.693835
0.319852
0.301793
0.329041
0.537964
0.408093
0.289871
0.706304
0.703825
0.700901
0.69081
0.283427
0.346829
0.700229
0.349506
0.690377
0.699426
0.562356
0.294002
0.345449
0.700265
0.557689
0.642108
0.277881
0.701
0.693627
0.631773
0.699929
0.700708
0.560235
0.701602
0.338694
0.694165
0.566773
0.690449
0.705761
0.559722
0.700021
0.561841
0.697454
0.313567
0.311707
0.347924
0.559496
0.522383
0.350424
0.709244
0.701502
0.282374
0.698252
0.323103
0.705753
0.515998
0.297833
0.700279
0.701838
0.3429
0.601395
0.562273
0.320921
0.700408
0.319873
0.261014
0.670928
0.649582
0.498602
0.691121
0.327536
0.702085
0.309184
0.282802
0.693205
0.340358
0.657205
0.294968
0.700027
0.646532
0.563079
0.700307
0.292196
0.313174
0.697982
0.476105
0.702668
0.457755
0.650839
0.695714
0.701959
0.484447
0.649751
0.699546
0.700977
0.69645
0.347101
0.357144
0.600768
0.699313
0.70116
0.371367
0.69083
0.643699
0.38142
0.293961
0.698714
0.710969
0.558753
0.560976
0.699484
0.706423
0.692285
0.707455
0.293072
0.693184
0.426934
0.698612
0.692368
0.330127
0.701381
0.700408
0.314458
0.290052
0.333289
0.560093
0.3247
0.669285
0.703159
0.693338
0.311478
0.697677
0.31258
0.627008
0.682774
0.618815
0.706088
0.672574
0.659708
0.706959
0.587785
0.695272
0.325691
0.690099
0.693512
0.460962
0.560913
0.70681
0.303418
0.288354
0.321725
0.699672
0.355556
0.561547
0.329854
0.701027
0.306099
0.46148
0.290895
0.702132
0.700511
0.614222
0.304265
0.661678
0.689573
0.332381
0.632781
0.700656
0.289025
0.639258
0.560422
0.700024
0.690489
0.308878
0.504098
0.701719
0.691805
0.700831
0.34878
0.397354
0.700556
0.560838
0.562565
0.561389
0.619064
0.706528
0.615661
0.698469
0.348682
0.314401
0.56188
0.700204
0.686732
0.324086
0.690227
0.630286
0.669755
0.323142
0.381348
0.700229
0.700361
0.612909
0.33105
0.690995
0.561992
0.319058
0.651824
0.703626
0.318975
0.289009
0.295173
0.698984
0.318549
0.337861
0.700974
0.462952
0.70094
0.70174
0.31682
0.335357
0.700658
0.314202
0.311538
0.558916
0.281438
0.364808
0.641946
0.70144
0.701676
0.329037
0.325828
0.323904
0.700861
0.272769
0.701598
0.307039
0.708405
0.700382
0.693898
0.700424
0.697144
0.700495
0.697074
0.700289
0.702266
0.292644
0.32914
0.696741
0.694506
0.503013
0.699491
0.615179
0.691776
0.689964
0.321529
0.697554
0.700574
0.695173
0.32244
0.69617
0.321721
0.692189
0.489849
0.703104
0.690586
0.299359
0.702909
0.33786
0.441327
0.697995
0.328615
0.705079
0.560414
0.701172
0.331745
0.694082
0.330706
0.29327
0.296136
0.336632
0.692383
0.295857
0.700023
0.664973
0.332162
0.300331
0.481201
0.623826
0.681224
0.70027
0.34189
0.32849
0.32034
0.291214
0.302666
0.684228
0.699916
0.319429
0.678318
0.703507
0.296447
0.700293
0.705508
0.67756
0.325794
0.561775
0.711304
0.701982
0.699248
0.296805
0.70385
0.70127
0.698897
0.697759
0.689627
0.312443
0.297007
0.692436
0.596154
0.349479
0.693064
0.299314
0.613113
0.689899
0.700239
0.70025
0.291734
0.699341
0.378025
0.322845
0.705292
0.700623
0.701067
0.699319
0.709389
0.293653
0.700019
0.292149
0.500558
0.700353
0.561444
0.701969
0.323266
0.296412
0.700127
0.306075
0.700718
0.68188
0.406112
0.320947
0.697842
0.295101
0.690663
0.700946
0.713785
0.295487
0.311791
0.466212
0.574335
0.675004
0.458588
0.689564
0.700342
0.700019
0.559608
0.707208
0.314389
0.320725
0.700435
0.689634
0.700781
0.415324
0.319242
0.710818
0.296614
0.697938
0.653789
0.329089
0.703088
0.329606
0.701084
0.320432
0.700573
0.291574
0.692922
0.689884
0.284077
0.700509
0.688466
0.286594
0.638441
0.691406
0.616876
0.265577
0.36756
0.454419
0.701686
0.700252
0.326579
0.623557
0.705165
0.692094
0.313393
0.680561
0.69707
0.44061
0.689109
0.696762
0.327947
0.700211
0.559293
0.321486
0.656808
0.333522
0.706678
0.329254
0.26957
0.701382
0.337561
0.337573
0.293968
0.694474
0.699636
0.390814
0.691195
0.366155
0.711391
0.33178
0.697932
0.362747
0.695994
0.692212
0.710425
0.642473
0.601719
0.689929
0.676314
0.319462
0.673383
0.712051
0.565867
0.70824
0.489958
0.408263
0.700028
0.335084
0.620133
0.32394
0.690935
0.292631
0.299503
0.701953
0.696974
0.340305
0.69845
0.704033
0.559775
0.700619
0.559515
0.339256
0.700383
0.342699
0.307429
0.700143
0.702974
0.701024
0.700346
0.289501
0.328375
0.322949
0.697652
0.659453
0.366172
0.701614
0.322816
0.329939
0.323926
0.70008
0.38664
0.700001
0.702632
0.671368
0.699106
0.701699
0.637977
0.70001
0.390367
0.288397
0.34058
0.559582
0.560784
0.321785
0.685284
0.698232
0.704636
0.308925
0.431219
0.700268
0.298862
0.700357
0.683303
0.343543
0.689594
0.697805
0.350808
0.698741
0.311019
0.697145
0.700979
0.695745
0.294447
0.455103
0.7051
0.333126
0.433315
0.700461
0.340713
0.689669
0.695959
0.69993
0.703959
0.331883
0.556421
0.705454
0.691719
0.354451
0.699743
0.309854
0.263093
0.700442
0.697878
0.664497
0.249089
0.690841
0.670842
0.561718
0.327058
0.314193
0.353303
0.698661
0.320223
0.304819
0.319705
0.682079
0.308237
0.328204
0.39962
0.699949
0.346065
0.630641
0.68817
0.698518
0.331528
0.695732
0.694441
0.673194
0.38523
0.696092
0.317873
0.334482
0.694121
0.340781
0.690583
0.706099
0.562657
0.343942
0.337288
0.322286
0.60481
0.558747
0.257716
0.694141
0.694186
0.703241
0.331377
0.291634
0.34312
0.700775
0.345132
0.559532
0.646662
0.689637
0.699848
0.327673
0.695292
0.286931
0.682926
0.683489
0.700227
0.671297
0.57131
0.698972
0.701096
0.700386
0.333662
0.357022
0.32928
0.703389
0.609465
0.561537
0.34408
0.389448
0.702109
0.695619
0.591633
0.340977
0.698924
0.60373
0.607456
0.700435
0.314251
0.341691
0.329937
0.698221
0.661328
0.695801
0.699398
0.345996
0.701263
0.693109
0.66366
0.661496
0.700974
0.700498
0.691468
0.703334
0.701324
0.310277
0.697946
0.699507
0.689373
0.699761
0.697581
0.655167
0.344673
0.273848
0.694292
0.346606
0.331553
0.699221
0.306889
0.671749
0.694864
0.697591
0.69464
0.305957
0.699227
0.296497
0.315632
0.691945
0.706209
0.690852
0.331078
0.699973
0.691092
0.698968
0.693573
0.312556
0.689553
0.700095
0.698124
0.377856
0.702205
0.32583
0.700011
0.327054
0.345404
0.622094
0.422307
0.700217
0.702187
0.690512
0.319268
0.689566
0.393448
0.303099
0.700179
0.482908
0.344191
0.690674
0.278672
0.520008
0.705083
0.700433
0.700543
0.486649
0.636959
0.69841
0.690444
0.655754
0.700961
0.598495
0.70179
0.69918
0.692724
0.281375
0.324349
0.418339
0.699344
0.304337
0.700353
0.698532
0.655971
0.690606
0.59948
0.704874
0.707121
0.325117
0.698377
0.699191
0.580955
0.699374
0.700005
0.70071
0.689456
0.331658
0.311691
0.694016
0.610792
0.61757
0.697972
0.69241
0.691314
0.701327
0.701031
0.673641
0.700564
0.70016
0.300308
0.288095
0.286342
0.32645
0.562765
0.441327
0.609047
0.703468
0.706608
0.30873
0.694349
0.700503
0.331505
0.372741
0.561685
0.698017
0.314641
0.28056
0.272494
0.559487
0.700353
0.381327
0.314421
0.343365
0.274911
0.346572
0.351211
0.702049
0.692098
0.710086
0.332128
0.697379
0.67141
0.650734
0.326928
0.339421
0.7002
0.560138
0.348097
0.694591
0.350205
0.702037
0.310416
0.698771
0.336337
0.700771
0.70034
0.331274
0.60896
0.313699
0.70032
0.277975
0.67693
0.299045
0.510566
0.318806
0.672836
0.332874
0.610679
0.615606
0.649109
0.695667
0.330825
0.698432
0.688915
0.700104
0.668018
0.712757
0.340864
0.427316
0.325824
0.701734
0.306761
0.700373
0.607428
0.703055
0.700012
0.507552
0.702164
0.30395
0.315472
0.303564
0.529896
0.62726
0.692997
0.328753
0.311842
0.693413
0.399353
0.294158
0.650904
0.371563
0.349858
0.276526
0.701108
0.687099
0.680114
0.313901
0.698735
0.698224
0.285721
0.358266
0.700099
0.693067
0.681194
0.537639
0.41761
0.354625
0.327484
0.701034
0.696053
0.597777
0.70562
0.28712
0.631147
0.328148
0.562349
0.700572
0.342984
0.302291
0.698936
0.646783
0.700428
0.701209
0.701318
0.698995
0.700216
0.326595
0.314618
0.329032
0.328951
0.620829
0.560075
0.688434
0.333439
0.342133
0.454663
0.288574
0.691498
0.700081
0.33601
0.338392
0.694632
0.312707
0.698801
0.701892
0.700834
0.689284
0.629581
0.353104
0.336841
0.70092
0.343616
0.430343
0.386866
0.68844
0.699418
0.317723
0.344145
0.559927
0.332625
0.696089
0.701751
0.346676
0.315119
0.307085
0.69318
0.316151
0.560361
0.705043
0.660234
0.281472
0.592861
0.700533
0.697713
0.320424
0.696398
0.693515
0.291746
0.700857
0.701197
0.323297
0.341143
0.700248
0.329988
0.329502
0.697158
0.370547
0.69238
0.704922
0.702208
0.696706
0.700264
0.694844
0.690161
0.322003
0.38331
0.701893
0.694241
0.448751
0.700295
0.34936
0.697347
0.700495
0.625663
0.693812
0.426807
0.429613
0.693937
0.700384
0.699192
0.70033
0.692249
0.561333
0.70067
0.559784
0.701326
0.700182
0.700807
0.56102
0.690029
0.292467
0.700366
0.319305
0.697817
0.697785
0.702551
0.700639
0.704477
0.315089
0.324595
0.337844
0.321759
0.700856
0.339201
0.325407
0.706836
0.281601
0.703658
0.327236
0.69803
0.703433
0.337555
0.398468
0.329687
0.698823
0.321743
0.69306
0.703198
0.321759
0.700288
0.610389
0.336614
0.3183
0.284936
0.704896
0.343139
0.698452
0.596325
0.31811
0.691608
0.690652
0.701424
0.350537
0.636083
0.295383
0.697315
0.694906
0.696938
0.353912
0.693477
0.69785
0.699829
0.397994
0.698717
0.35294
0.33262
0.699481
0.435866
0.700324
0.415443
0.352469
0.399324
0.700233
0.318357
0.294751
0.324599
0.517298
0.561527
0.703454
0.269861
0.665817
0.691966
0.603962
0.4541
0.328342
0.612329
0.356511
0.332028
0.692169
0.333485
0.350234
0.699812
0.700744
0.330123
0.703016
0.325663
0.561545
0.31952
0.700296
0.587627
0.703824
0.688908
0.31095
0.330125
0.295659
0.695373
0.700079
0.633674
0.610335
0.389045
0.319322
0.690029
0.322803
0.69237
0.364719
0.601823
0.706111
0.334808
0.323243
0.335843
0.344509
0.321138
0.699737
0.700097
0.336087
0.697705
0.688866
0.323055
0.297514
0.700637
0.341615
0.700268
0.39901
0.703633
0.697016
0.69475
0.561484
0.308444
0.700984
0.69805
0.701183
0.338629
0.700033
0.641877
0.330581
0.699184
0.707875
0.702258
0.699814
0.700149
0.699992
0.700738
0.689333
0.691533
0.338597
0.701836
0.336796
0.465313
0.700866
0.295663
0.700577
0.700738
0.308885
0.699826
0.33901
0.291082
0.700357
0.700368
0.700718
0.328394
0.700442
0.662457
0.319748
0.333568
0.700821
0.698127
0.373129
0.321392
0.703319
0.700686
0.350283
0.69204
0.700422
0.688062
0.334036
0.352265
0.292116
0.697108
0.293348
0.695205
0.7037
0.690206
0.677446
0.701815
0.328903
0.700226
0.658206
0.7003
0.671051
0.299217
0.320997
0.278308
0.702051
0.702237
0.408942
0.695782
0.326732
0.711353
0.697768
0.280307
0.691983
0.694735
0.676
0.33244
0.330239
0.327134
0.701111
0.700271
0.659879
0.537861
0.697335
0.34757
0.680788
0.561244
0.695507
0.331651
0.6634
0.310548
0.69989
0.272081
0.693431
0.700355
0.314825
0.700837
0.469179
0.561729
0.699639
0.559605
0.699438
0.418404
0.689855
0.690612
0.698748
0.693356
0.472535
0.561247
0.299261
0.690822
0.28036
0.339647
0.286147
0.322022
0.355798
0.333614
0.700471
0.359538
0.305065
0.705658
0.700635
0.700148
0.384831
0.705157
0.705625
0.689417
0.311411
0.669906
0.695676
0.323434
0.321308
0.329407
0.679225
0.509415
0.345262
0.663902
0.284111
0.559699
0.500603
0.318109
0.429924
0.69333
0.327994
0.697543
0.290114
0.555481
0.370192
0.700812
0.379063
0.708852
0.56147
0.698051
0.453052
0.33927
0.701215
0.700531
0.320123
0.293333
0.695361
0.342321
0.70238
0.331511
0.610007
0.277146
0.694787
0.315562
0.700542
0.339646
0.698012
0.700849
0.700316
0.563484
0.300669
0.304069
0.381611
0.700662
0.70692
0.700078
0.632642
0.311494
0.702552
0.328433
0.700145
0.698112
0.408463
0.319684
0.701922
0.693054
0.297711
0.558756
0.701375
0.70151
0.702043
0.289703
0.682429
0.338708
0.701248
0.289123
0.68062
0.700195
0.701321
0.700684
0.321554
0.70092
0.33669
0.324303
0.696175
0.563705
0.615161
0.693772
0.561872
0.341979
0.702008
0.700615
0.700832
0.293579
0.411102
0.705676
0.338782
0.697613
0.698881
0.700385
0.700668
0.302678
0.449044
0.690245
0.311623
0.700352
0.700272
0.471887
0.700177
0.308921
0.700686
0.701845
0.705436
0.700231
0.328777
0.301187
0.69275
0.698036
0.307421
0.341852
0.314026
0.311087
0.303816
0.287911
0.320796
0.347938
0.693051
0.283804
0.333733
0.703843
0.615609
0.560279
0.386371
0.343863
0.692807
0.458748
0.535176
0.700489
0.374145
0.69541
0.636341
0.65142
0.697077
0.323599
0.703111
0.687076
0.319213
0.331502
0.411203
0.700546
0.652151
0.700044
0.695051
0.698802
0.696952
0.356454
0.70203
0.689747
0.70115
0.345171
0.695602
0.687
0.350925
0.409127
0.308944
0.292134
0.30002
0.643726
0.705403
0.696873
0.332764
0.40407
0.700395
0.282693
0.703271
0.690764
0.699786
0.705511
0.693889
0.322386
0.293964
0.27916
0.638626
0.290123
0.691547
0.277136
0.6944
0.691771
0.697445
0.325039
0.444837
0.414273
0.700831
0.322121
0.328219
0.699387
0.697361
0.695335
0.695499
0.70092
0.702485
0.356169
0.663759
0.700493
0.587723
0.698923
0.702552
0.702192
0.444344
0.391796
0.700852
0.497116
0.683873
0.336185
0.69912
0.700786
0.37903
0.294778
0.698039
0.565347
0.70045
0.703386
0.344876
0.342547
0.559585
0.446581
0.392246
0.700631
0.700659
0.310663
0.697614
0.562584
0.700912
0.356843
0.643773
0.354446
0.699562
0.700581
0.702437
0.69805
0.557224
0.331463
0.362431
0.708302
0.33369
0.650855
0.314379
0.697153
0.271457
0.69876
0.700693
0.55972
0.353564
0.560002
0.561824
0.327696
0.699431
0.283851
0.701208
0.349925
0.336202
0.259934
0.710801
0.695733
0.353051
0.336394