# vtk DataFile Version 1.0
unstructured grid
ascii
DATASET UNSTRUCTURED_GRID
points 13672 float
0.0796578 -0.059106 0
0.00128732 0.00159165 0
0.00227961 -0.00102548 0
0.0791586 -0.0598787 0
-0.0546216 0.01 0
0.000495206 0.025 0
0.0800549 -0.035 0
0.135172 -0.08 0
-0.0546216 -0.0451168 0
0.000495206 -0.0301168 0
0.0800549 -0.0901168 0
0.135172 -0.135117 0
-0.0546216 -0.0451168 -0.00551168
0.000495206 -0.0301168 -0.00551168
0.0800549 -0.0901168 -0.00551168
0.135172 -0.135117 -0.00551168
0.135172 -0.08 -0.00551168
0.0800549 -0.035 -0.00551168
0.000495206 0.025 -0.00551168
-0.0546216 0.01 -0.00551168
0.00128732 0.00159165 -0.00551168
0.00227961 -0.00102548 -0.00551168
0.0791586 -0.0598787 -0.00551168
0.0796578 -0.059106 -0.00551168
0.00165953 -0.000990923 0
0.00119576 -0.000874076 0
0.000866021 -0.000641801 0
0.000645147 -0.000349912 0
0.00052235 -1.7281e-05 0
0.00049972 0.000348016 0
0.000601632 0.000737716 0
0.000861774 0.0011403 0
0.00157235 0.00183217 0
0.00188647 0.00206725 0
0.00222612 0.00230203 0
0.00258713 0.00254351 0
0.00296826 0.00279524 0
0.00337118 0.00305664 0
0.00379785 0.00332658 0
0.00425045 0.00360349 0
0.00473139 0.00388521 0
0.0052432 0.00416895 0
0.0057881 0.00445204 0
0.00636753 0.00473281 0
0.00698281 0.00500961 0
0.00763526 0.00528058 0
0.00832616 0.00554366 0
0.00905691 0.00579603 0
0.00982918 0.00603333 0
0.0106445 0.00625033 0
0.0115038 0.00644128 0
0.0124073 0.00660297 0
0.0133543 0.00673414 0
0.0143444 0.00683382 0
0.0153769 0.00690031 0
0.0164512 0.00693173 0
0.0175666 0.00692547 0
0.0187219 0.00687822 0
0.0199156 0.00678477 0
0.0211454 0.00663864 0
0.0224084 0.00643275 0
0.0237018 0.00616676 0
0.0250249 0.00584739 0
0.026375 0.00547298 0
0.0277479 0.00503752 0
0.0291386 0.00453545 0
0.0305433 0.0039653 0
0.0319572 0.0033256 0
0.0333681 0.00260019 0
0.034775 0.00179799 0
0.0361793 0.000930615 0
0.0375798 3.12222e-06 0
0.0389689 -0.000988429 0
0.0403357 -0.00205109 0
0.041675 -0.00318283 0
0.0429849 -0.00437751 0
0.0442643 -0.00562904 0
0.0455126 -0.00693089 0
0.0467314 -0.00827518 0
0.0479204 -0.00965638 0
0.0490661 -0.0110799 0
0.0501515 -0.0125519 0
0.0511696 -0.0140695 0
0.0521492 -0.0156071 0
0.0531202 -0.0171411 0
0.0540851 -0.0186663 0
0.0550431 -0.0201798 0
0.0559923 -0.0216793 0
0.0569311 -0.0231626 0
0.0578582 -0.0246273 0
0.0587723 -0.0260715 0
0.0596721 -0.027493 0
0.0605563 -0.02889 0
0.0614241 -0.0302609 0
0.0622742 -0.0316042 0
0.063106 -0.0329183 0
0.0639186 -0.034202 0
0.0647113 -0.0354543 0
0.0654835 -0.0366743 0
0.0662345 -0.0378613 0
0.0669642 -0.0390145 0
0.0676726 -0.0401333 0
0.0683597 -0.0412172 0
0.0690246 -0.0422665 0
0.0696662 -0.0432819 0
0.0702841 -0.0442636 0
0.0708793 -0.0452111 0
0.0714538 -0.0461237 0
0.072009 -0.047001 0
0.0725452 -0.0478434 0
0.0730611 -0.0486524 0
0.073556 -0.0494294 0
0.0740291 -0.0501756 0
0.0744812 -0.0508916 0
0.0749138 -0.0515773 0
0.0753285 -0.0522331 0
0.0757266 -0.0528592 0
0.076109 -0.0534564 0
0.0764753 -0.0540264 0
0.0768243 -0.054571 0
0.0771553 -0.0550919 0
0.0774679 -0.0555901 0
0.0777617 -0.0560669 0
0.0780369 -0.056523 0
0.0782958 -0.0569578 0
0.0785421 -0.0573703 0
0.0787786 -0.0577603 0
0.0790073 -0.0581279 0
0.0792295 -0.058474 0
0.0794462 -0.0587995 0
0.0798803 -0.0594162 0
0.0800272 -0.0596588 0
0.0800357 -0.0598891 0
0.0799275 -0.0600784 0
0.0797205 -0.0601773 0
0.0794593 -0.0601051 0
0.0789155 -0.0596491 0
0.0786707 -0.0593963 0
0.0784111 -0.0591319 0
0.0781372 -0.0588542 0
0.0778566 -0.0585548 0
0.0775715 -0.0582308 0
0.0772803 -0.0578828 0
0.0769832 -0.0575099 0
0.0766822 -0.0571097 0
0.0763801 -0.0566796 0
0.0760759 -0.0562196 0
0.0757623 -0.0557337 0
0.0754359 -0.0552232 0
0.0750951 -0.0546879 0
0.0747379 -0.054128 0
0.0743626 -0.0535435 0
0.0739688 -0.0529338 0
0.0735559 -0.0522981 0
0.0731238 -0.0516357 0
0.0726718 -0.050946 0
0.0721991 -0.0502288 0
0.0717046 -0.049484 0
0.0711872 -0.0487117 0
0.0706461 -0.047912 0
0.0700804 -0.0470849 0
0.0694892 -0.0462308 0
0.0688718 -0.0453499 0
0.0682271 -0.0444431 0
0.0675544 -0.043511 0
0.0668527 -0.0425546 0
0.0661215 -0.0415748 0
0.06536 -0.040573 0
0.0645676 -0.0395504 0
0.0637439 -0.0385087 0
0.0628887 -0.0374493 0
0.062002 -0.0363741 0
0.0610838 -0.0352847 0
0.0601345 -0.0341831 0
0.0591547 -0.033071 0
0.0581456 -0.0319502 0
0.0571083 -0.0308224 0
0.0560444 -0.0296893 0
0.0549562 -0.028552 0
0.053845 -0.0274126 0
0.0527113 -0.0262746 0
0.051554 -0.0251427 0
0.0503724 -0.0240222 0
0.0491675 -0.0229164 0
0.047941 -0.0218282 0
0.0466955 -0.0207597 0
0.0454337 -0.0197126 0
0.0441592 -0.0186878 0
0.0428751 -0.0176863 0
0.0415841 -0.0167097 0
0.0402878 -0.0157609 0
0.0389879 -0.0148428 0
0.0376864 -0.0139575 0
0.0363853 -0.013107 0
0.0350871 -0.0122931 0
0.0337942 -0.0115164 0
0.0325095 -0.0107772 0
0.0312357 -0.0100756 0
0.0299758 -0.00941024 0
0.0287337 -0.00877784 0
0.0275126 -0.00817571 0
0.0263139 -0.00760375 0
0.0251376 -0.00706528 0
0.0239829 -0.0065649 0
0.0228537 -0.00609619 0
0.0217522 -0.00565563 0
0.0206795 -0.00524226 0
0.0196364 -0.00485507 0
0.0186233 -0.00449318 0
0.0176408 -0.00415577 0
0.016689 -0.00384204 0
0.0157682 -0.00355115 0
0.0148783 -0.00328218 0
0.0140192 -0.00303468 0
0.0131906 -0.00280795 0
0.0123925 -0.00260016 0
0.0116246 -0.00241012 0
0.0108864 -0.00223769 0
0.0101774 -0.00208212 0
0.00949701 -0.00194206 0
0.00884483 -0.0018163 0
0.0082202 -0.0017039 0
0.00762247 -0.00160391 0
0.00705097 -0.00151528 0
0.006505 -0.00143697 0
0.0059838 -0.00136806 0
0.00548662 -0.00130772 0
0.00501265 -0.00125519 0
0.00456114 -0.00120954 0
0.00413136 -0.00116914 0
0.00372257 -0.00113251 0
0.00333398 -0.00109853 0
0.00296466 -0.00106798 0
0.00261363 -0.0010431 0
-0.052721 -0.0445996 0
-0.0508204 -0.0440823 0
-0.0489199 -0.0435651 0
-0.0470193 -0.0430478 0
-0.0451187 -0.0425306 0
-0.0432181 -0.0420134 0
-0.0413175 -0.0414961 0
-0.039417 -0.0409789 0
-0.0375164 -0.0404616 0
-0.0356158 -0.0399444 0
-0.0337152 -0.0394271 0
-0.0318146 -0.0389099 0
-0.0299141 -0.0383927 0
-0.0280135 -0.0378754 0
-0.0261129 -0.0373582 0
-0.0242123 -0.0368409 0
-0.0223117 -0.0363237 0
-0.0204112 -0.0358065 0
-0.0185106 -0.0352892 0
-0.01661 -0.034772 0
-0.0147094 -0.0342547 0
-0.0128088 -0.0337375 0
-0.0109083 -0.0332202 0
-0.00900769 -0.032703 0
-0.00710711 -0.0321858 0
-0.00520653 -0.0316685 0
-0.00330595 -0.0311513 0
-0.00140537 -0.030634 0
0.00190689 -0.0299614 0
0.00332271 -0.0298498 0
0.00474133 -0.0297825 0
0.00616136 -0.0297597 0
0.0075814 -0.0297814 0
0.00900007 -0.0298477 0
0.010416 -0.0299583 0
0.0118278 -0.0301127 0
0.0132342 -0.0303103 0
0.0146339 -0.0305504 0
0.0160259 -0.0308322 0
0.0174091 -0.0311546 0
0.0187824 -0.0315166 0
0.020145 -0.031917 0
0.0214961 -0.0323546 0
0.0228351 -0.032828 0
0.0241613 -0.0333361 0
0.0254744 -0.0338774 0
0.0267738 -0.0344507 0
0.0280592 -0.0350545 0
0.0293306 -0.0356877 0
0.0305875 -0.0363488 0
0.0318301 -0.0370367 0
0.0330581 -0.0377501 0
0.0342717 -0.0384879 0
0.0354708 -0.0392489 0
0.0366556 -0.0400321 0
0.0378262 -0.0408363 0
0.0389828 -0.0416607 0
0.0401254 -0.0425042 0
0.0412543 -0.0433659 0
0.0423698 -0.0442451 0
0.043472 -0.0451408 0
0.0445612 -0.0460523 0
0.0456375 -0.0469789 0
0.0467013 -0.0479199 0
0.0477529 -0.0488746 0
0.0487923 -0.0498424 0
0.04982 -0.0508227 0
0.0508362 -0.051815 0
0.051841 -0.0528187 0
0.0528348 -0.0538333 0
0.0538178 -0.0548584 0
0.0547903 -0.0558935 0
0.0557524 -0.0569382 0
0.0567045 -0.0579922 0
0.0576467 -0.0590549 0
0.0585792 -0.0601261 0
0.0595024 -0.0612055 0
0.0604163 -0.0622926 0
0.0613212 -0.0633873 0
0.0622174 -0.0644891 0
0.0631049 -0.0655979 0
0.0639841 -0.0667134 0
0.064855 -0.0678353 0
0.0657179 -0.0689633 0
0.0665729 -0.0700974 0
0.0674202 -0.0712372 0
0.06826 -0.0723826 0
0.0690925 -0.0735333 0
0.0699178 -0.0746892 0
0.070736 -0.0758501 0
0.0715473 -0.0770159 0
0.0723518 -0.0781863 0
0.0731498 -0.0793612 0
0.0739412 -0.0805405 0
0.0747264 -0.081724 0
0.0755053 -0.0829116 0
0.0762781 -0.0841033 0
0.0770449 -0.0852987 0
0.0778059 -0.0864979 0
0.0785611 -0.0877007 0
0.0793108 -0.088907 0
0.0814681 -0.0912706 0
0.0828814 -0.0924245 0
0.0842946 -0.0935783 0
0.0857079 -0.0947322 0
0.0871211 -0.095886 0
0.0885344 -0.0970399 0
0.0899476 -0.0981937 0
0.0913609 -0.0993476 0
0.0927741 -0.100501 0
0.0941874 -0.101655 0
0.0956006 -0.102809 0
0.0970139 -0.103963 0
0.0984272 -0.105117 0
0.0998404 -0.106271 0
0.101254 -0.107424 0
0.102667 -0.108578 0
0.10408 -0.109732 0
0.105493 -0.110886 0
0.106907 -0.11204 0
0.10832 -0.113194 0
0.109733 -0.114348 0
0.111146 -0.115501 0
0.11256 -0.116655 0
0.113973 -0.117809 0
0.115386 -0.118963 0
0.116799 -0.120117 0
0.118213 -0.121271 0
0.119626 -0.122424 0
0.121039 -0.123578 0
0.122452 -0.124732 0
0.123866 -0.125886 0
0.125279 -0.12704 0
0.126692 -0.128194 0
0.128105 -0.129348 0
0.129519 -0.130501 0
0.130932 -0.131655 0
0.132345 -0.132809 0
0.133758 -0.133963 0
0.135172 -0.133216 0
0.135172 -0.131316 0
0.135172 -0.129415 0
0.135172 -0.127514 0
0.135172 -0.125614 0
0.135172 -0.123713 0
0.135172 -0.121813 0
0.135172 -0.119912 0
0.135172 -0.118012 0
0.135172 -0.116111 0
0.135172 -0.11421 0
0.135172 -0.11231 0
0.135172 -0.110409 0
0.135172 -0.108509 0
0.135172 -0.106608 0
0.135172 -0.104708 0
0.135172 -0.102807 0
0.135172 -0.100906 0
0.135172 -0.0990058 0
0.135172 -0.0971052 0
0.135172 -0.0952046 0
0.135172 -0.0933041 0
0.135172 -0.0914035 0
0.135172 -0.0895029 0
0.135172 -0.0876023 0
0.135172 -0.0857017 0
0.135172 -0.0838012 0
0.135172 -0.0819006 0
0.133758 -0.0788462 0
0.132345 -0.0776923 0
0.130932 -0.0765385 0
0.129519 -0.0753846 0
0.128105 -0.0742308 0
0.126692 -0.0730769 0
0.125279 -0.0719231 0
0.123866 -0.0707692 0
0.122452 -0.0696154 0
0.121039 -0.0684615 0
0.119626 -0.0673077 0
0.118213 -0.0661538 0
0.116799 -0.065 0
0.115386 -0.0638462 0
0.113973 -0.0626923 0
0.11256 -0.0615385 0
0.111146 -0.0603846 0
0.109733 -0.0592308 0
0.10832 -0.0580769 0
0.106907 -0.0569231 0
0.105493 -0.0557692 0
0.10408 -0.0546154 0
0.102667 -0.0534615 0
0.101254 -0.0523077 0
0.0998404 -0.0511538 0
0.0984272 -0.05 0
0.0970139 -0.0488462 0
0.0956006 -0.0476923 0
[...]
CELL_DATA 13116
SCALARS rho float
LOOKUP_TABLE default
0.60487
0.705469
0.335078
0.699517
0.699302
0.691532
0.305816
0.701154
0.543735
0.699596
0.313096
0.29073
0.699247
0.292884
0.328628
0.691663
0.611233
0.697258
0.702511
0.312496
0.594967
0.347776
0.299245
0.697793
0.607023
0.702547
0.699572
0.328985
0.57807
0.651475
0.558083
0.294705
0.559195
0.462555
0.311195
0.600862
0.67968
0.709469
0.67476
0.699476
0.699428
0.701017
0.509613
0.315866
0.700864
0.703064
0.710185
0.701914
0.349218
0.518473
0.700363
0.503775
0.286969
0.603821
0.562489
0.590628
0.312062
0.699427
0.524728
0.324247
0.294633
0.699604
0.706798
0.662452
0.560175
0.305425
0.69698
0.679917
0.697814
0.556665
0.329455
0.564309
0.333307
0.306379
0.559459
0.325831
0.681349
0.700045
0.30818
0.69671
0.693216
0.702407
0.698438
0.705249
0.700298
0.40269
0.303219
0.670618
0.701854
0.338403
0.29479
0.706636
0.698999
0.701823
0.660582
0.613465
0.609131
0.561398
0.559492
0.58323
0.674553
0.685314
0.698545
0.441413
0.697609
0.27879
0.357912
0.540246
0.314103
0.591387
0.560055
0.701866
0.610327
0.692936
0.696937
0.697798
0.300014
0.394264
0.700417
0.698541
0.678507
0.330681
0.697782
0.294243
0.702751
0.434785
0.302663
0.491529
0.310236
0.515423
0.700272
0.705233
0.460958
0.33592
0.443104
0.633661
0.560296
0.69827
0.673246
0.698613
0.672098
0.711205
0.494583
0.674683
0.6954
0.29224
0.309585
0.702027
0.699698
0.700425
0.508414
0.705627
0.701524
0.323705
0.698972
0.700801
0.299804
0.679032
0.561416
0.669521
0.697994
0.311231
0.699555
0.300628
0.334965
0.699535
0.702744
0.697281
0.307872
0.425389
0.400254
0.56146
0.325399
0.484359
0.697234
0.298607
0.343881
0.338384
0.701466
0.685035
0.326204
0.419778
0.576035
0.677696
0.685468
0.528305
0.31769
0.695098
0.697194
0.455674
0.666781
0.701821
0.564019
0.298351
0.701201
0.687006
0.698961
0.696249
0.702087
0.369414
0.446203
0.600043
0.486727
0.30239
0.700586
0.707574
0.509804
0.620088
0.300074
0.322049
0.321258
0.693465
0.299814
0.325866
0.33134
0.323257
0.388957
0.67256
0.70298
0.387491
0.310851
0.696563
0.55624
0.327604
0.509337
0.699624
0.693988
0.328686
0.697112
0.369413
0.70173
0.295019
0.560268
0.548626
0.561469
0.700542
0.586071
0.302863
0.431788
0.667332
0.559416
0.686196
0.56048
0.588457
0.701225
0.344684
0.699425
0.699146
0.562067
0.31626
0.35013
0.706613
0.700194
0.554211
0.701422
0.604873
0.68994
0.312922
0.302902
0.422258
0.296816
0.692991
0.698958
0.681044
0.30552
0.699715
0.310642
0.398876
0.698843
0.323253
0.702464
0.700546
0.559581
0.699532
0.306218
0.559636
0.696664
0.562945
0.698136
0.309185
0.306711
0.298856
0.631708
0.332174
0.340265
0.341756
0.360849
0.713705
0.266398
0.701599
0.699343
0.313408
0.315763
0.310563
0.433085
0.337319
0.66981
0.664212
0.699704
0.32343
0.693843
0.544724
0.315523
0.329234
0.687644
0.699916
0.695361
0.317244
0.688135
0.442891
0.705781
0.700783
0.699989
0.700771
0.298649
0.696727
0.281631
0.692653
0.69948
0.664424
0.319395
0.337779
0.699244
0.308484
0.715818
0.699572
0.332911
0.688087
0.698483
0.309674
0.699716
0.69895
0.262518
0.699492
0.38751
0.529389
0.70243
0.401409
0.680642
0.306136
0.698242
0.340839
0.623717
0.687613
0.698955
0.3265
0.367753
0.700224
0.323472
0.700657
0.698539
0.415391
0.55951
0.321259
0.336487
0.700647
0.514298
0.680743
0.306419
0.300199
0.699383
0.699297
0.310007
0.699732
0.298386
0.270551
0.69853
0.701952
0.548489
0.355204
0.698231
0.558333
0.691542
0.700144
0.700288
0.512318
0.34359
0.295566
0.324061
0.69101
0.325764
0.578203
0.375734
0.296374
0.36251
0.554655
0.123482
0.323878
0.700614
0.29375
0.699499
0.582599
0.70514
0.66208
0.699469
0.336702
0.307808
0.384884
0.340127
0.700802
0.608065
0.70195
0.582054
0.695594
0.632041
0.70228
0.656829
0.649855
0.70058
0.695987
0.690864
0.42226
0.498407
0.604052
0.345545
0.66454
0.59255
0.29113
0.697455
0.559341
0.298732
0.313755
0.322356
0.319002
0.607093
0.330315
0.298576
0.694647
0.308195
0.552043
0.334768
0.69247
0.699839
0.33785
0.339143
0.700868
0.430302
0.34204
0.317676
0.347609
0.312724
0.308742
0.31502
0.348098
0.403856
0.316759
0.686427
0.337909
0.701789
0.357335
0.293392
0.454456
0.29078
0.335324
0.291544
0.699422
0.413222
0.627075
0.551716
0.307782
0.623194
0.701794
0.399651
0.687643
0.636933
0.638609
0.310254
0.561555
0.394435
0.699934
0.558838
0.304064
0.283641
0.695949
0.341907
0.400608
0.68792
0.357855
0.677971
0.698952
0.317848
0.343866
0.317993
0.480785
0.331754
0.246134
0.326121
0.28127
0.699769
0.699516
0.437917
0.586579
0.44664
0.701022
0.381719
0.336792
0.547533
0.305688
0.706116
0.329561
0.376574
0.457006
0.7019
0.70282
0.522926
0.339574
0.292285
0.521275
0.700985
0.578144
0.518086
0.705055
0.692718
0.31765
0.699395
0.544376
0.666159
0.367867
0.338269
0.692076
0.699095
0.660069
0.699744
0.702807
0.702978
0.69828
0.664121
0.704743
0.336145
0.700945
0.330904
0.300642
0.329738
0.699365
0.707145
0.335397
0.700584
0.594772
0.320998
0.628291
0.699802
0.700405
0.328494
0.333875
0.700591
0.346122
0.348917
0.291774
0.318736
0.706876
0.251524
0.699132
0.337593
0.704439
0.70011
0.697284
0.699232
0.34752
0.320101
0.707409
0.70211
0.680934
0.699721
0.699111
0.443913
0.31016
0.311405
0.691542
0.534105
0.32323
0.430024
0.295954
0.701282
0.696004
0.363394
0.348237
0.701615
0.407793
0.701669
0.649609
0.307617
0.36937
0.679143
0.560073
0.301073
0.702676
0.702756
0.707312
0.325782
0.562243
0.309444
0.561276
0.664658
0.356654
0.388149
0.342445
0.561815
0.317914
0.30456
0.397422
0.662274
0.701551
0.305659
0.301093
0.324778
0.641578
0.331132
0.686229
0.292989
0.567099
0.699656
0.358866
0.300529
0.299751
0.445929
0.314716
0.70295
0.317257
0.339622
0.691363
0.300462
0.692895
0.714483
0.561633
0.343958
0.705867
0.699018
0.698929
0.692416
0.702789
0.698284
0.292763
0.567369
0.392661
0.707442
0.308804
0.701097
0.518587
0.31194
0.562228
0.700181
0.318666
0.653611
0.295152
0.331331
0.694253
0.699432
0.296166
0.292613
0.307312
0.292272
0.701788
0.697705
0.322786
0.318456
0.700644
0.698288
0.570662
0.699122
0.694619
0.312121
0.69903
0.405871
0.700197
0.402731
0.602358
0.437454
0.695924
0.682225
0.544596
0.378333
0.324515
0.697368
0.574877
0.60234
0.699211
0.299491
0.698092
0.698933
0.350866
0.499816
0.699013
0.360786
0.560625
0.668274
0.335696
0.698754
0.658307
0.340756
0.701347
0.298952
0.702258
0.323346
0.693097
0.706875
0.322419
0.669898
0.699458
0.700588
0.59784
0.704134
0.546151
0.380043
0.437901
0.292913
0.304546
0.559567
0.513023
0.697876
0.699838
0.336099
0.329792
0.704217
0.699798
0.700726
0.700688
0.313484
0.695538
0.699176
0.312945
0.285017
0.700464
0.7066
0.701254
0.292625
0.550976
0.337566
0.701013
0.711691
0.572507
0.710174
0.321235
0.707877
0.701638
0.698718
0.699666
0.693232
0.38878
0.700411
0.322631
0.691958
0.699377
0.425185
0.69866
0.590555
0.700036
0.459428
0.417942
0.549666
0.650669
0.344742
0.356509
0.324084
0.3177
0.703919
0.697706
0.593824
0.366024
0.315154
0.697777
0.680238
0.260381
0.329731
0.431864
0.685978
0.696393
0.700345
0.698838
0.32282
0.345296
0.559689
0.294034
0.326246
0.318896
0.694287
0.336398
0.347635
0.586365
0.707438
0.701125
0.688095
0.694076
0.301656
0.316485
0.324786
0.558401
0.413591
0.295019
0.679736
0.697771
0.706747
0.695591
0.293222
0.345248
0.699702
0.333236
0.691796
0.70863
0.560877
0.295826
0.348854
0.702759
0.561465
0.62429
0.255651
0.700061
0.68937
0.584105
0.700284
0.700839
0.559654
0.705854
0.314474
0.693625
0.558468
0.669592
0.700535
0.559666
0.702164
0.56064
0.697874
0.338702
0.342953
0.344831
0.558631
0.524502
0.334017
0.704897
0.700611
0.288766
0.656756
0.339049
0.666502
0.546328
0.32695
0.699753
0.697463
0.324845
0.504216
0.558938
0.305843
0.702062
0.30222
0.275335
0.629585
0.599671
0.453997
0.699089
0.324191
0.699725
0.344705
0.290718
0.692787
0.322061
0.615303
0.296196
0.659018
0.602102
0.560968
0.702639
0.305729
0.340336
0.685748
0.514162
0.700897
0.472571
0.60864
0.691747
0.698563
0.522932
0.588186
0.70133
0.698939
0.697871
0.343607
0.354943
0.49835
0.701275
0.699052
0.407306
0.697667
0.623042
0.385767
0.296066
0.666123
0.685308
0.560151
0.562672
0.691825
0.69568
0.679406
0.688002
0.295753
0.657326
0.429831
0.699245
0.706894
0.34324
0.702389
0.699515
0.343345
0.304236
0.309763
0.559643
0.31087
0.62739
0.700549
0.657653
0.302549
0.71104
0.299277
0.552429
0.644011
0.574632
0.677924
0.632796
0.615558
0.692646
0.546779
0.707769
0.320732
0.693013
0.697075
0.499669
0.560521
0.699323
0.298731
0.303212
0.306668
0.699963
0.356118
0.563646
0.325207
0.701066
0.283027
0.438113
0.29474
0.699874
0.70051
0.605174
0.268377
0.618374
0.682749
0.326624
0.572436
0.699549
0.294724
0.591921
0.561745
0.699572
0.692072
0.303341
0.53946
0.700585
0.704617
0.691672
0.35072
0.414428
0.700413
0.559547
0.559718
0.560081
0.586804
0.704544
0.582779
0.698784
0.350179
0.300663
0.560427
0.699493
0.673807
0.30494
0.694278
0.598641
0.629044
0.336966
0.387319
0.699726
0.699809
0.538266
0.342222
0.700632
0.560723
0.306181
0.602169
0.698667
0.307258
0.293271
0.287988
0.699463
0.343197
0.338081
0.699955
0.47789
0.698998
0.662087
0.309087
0.309807
0.699912
0.34372
0.332822
0.56069
0.275923
0.385983
0.596159
0.703053
0.705583
0.316154
0.34196
0.314379
0.715503
0.276305
0.705131
0.322205
0.705102
0.702749
0.699449
0.704444
0.707709
0.710182
0.696007
0.69927
0.701475
0.246288
0.323342
0.705772
0.68405
0.457827
0.699571
0.550515
0.668625
0.669395
0.336881
0.698447
0.699595
0.709034
0.31664
0.707685
0.340469
0.705641
0.446135
0.69783
0.692933
0.332219
0.700874
0.323136
0.457466
0.705356
0.318983
0.681227
0.560266
0.701315
0.319368
0.694413
0.318784
0.296279
0.29642
0.332839
0.673143
0.326566
0.671502
0.611683
0.342421
0.29838
0.439837
0.548509
0.641274
0.698437
0.343953
0.306626
0.309599
0.294797
0.256878
0.643855
0.702557
0.330576
0.63991
0.70062
0.285741
0.699571
0.678484
0.629902
0.319769
0.564401
0.703564
0.700513
0.699846
0.334712
0.704464
0.700275
0.707479
0.665359
0.691264
0.354289
0.297002
0.70521
0.493265
0.352078
0.692538
0.297533
0.531052
0.646478
0.702338
0.701961
0.295599
0.698811
0.426982
0.317681
0.690983
0.700614
0.699586
0.699352
0.676181
0.296625
0.69919
0.321004
0.456121
0.69953
0.559564
0.70059
0.317436
0.310336
0.699264
0.315064
0.700616
0.641445
0.413775
0.359918
0.698649
0.296227
0.692696
0.700652
0.68099
0.296306
0.344025
0.482584
0.543521
0.63439
0.46144
0.692241
0.700549
0.701576
0.559582
0.703844
0.299629
0.35271
0.700215
0.690757
0.688238
0.422374
0.303266
0.698355
0.318166
0.695337
0.592712
0.34194
0.701145
0.312845
0.703231
0.337136
0.699411
0.307918
0.707072
0.684942
0.290233
0.702471
0.650327
0.292823
0.585064
0.698853
0.553863
0.289706
0.405592
0.461223
0.698995
0.695485
0.335676
0.546919
0.702075
0.691231
0.297851
0.637971
0.713223
0.401589
0.692063
0.692626
0.325587
0.700694
0.563845
0.333767
0.614801
0.319455
0.668929
0.32367
0.26349
0.699117
0.338323
0.326226
0.301015
0.696086
0.714027
0.424293
0.702892
0.397077
0.694227
0.319966
0.712288
0.410566
0.6919
0.70411
0.67668
0.580671
0.507213
0.685047
0.62884
0.331595
0.62932
0.677219
0.573789
0.704692
0.445751
0.431109
0.699189
0.326701
0.552273
0.340213
0.700574
0.253941
0.29828
0.69748
0.694611
0.317979
0.69883
0.697179
0.559612
0.700691
0.561097
0.315616
0.699715
0.321189
0.300211
0.702181
0.699342
0.700988
0.701752
0.295006
0.323649
0.313106
0.707708
0.605377
0.40086
0.702749
0.303922
0.32219
0.330396
0.701718
0.400528
0.699291
0.701259
0.626152
0.699508
0.702492
0.594533
0.678452
0.399442
0.29217
0.318518
0.561257
0.562096
0.303942
0.644226
0.698348
0.676487
0.302561
0.465955
0.701358
0.298472
0.69702
0.661459
0.323788
0.67771
0.704896
0.338967
0.70603
0.328898
0.697951
0.698948
0.707801
0.317351
0.422162
0.681039
0.328251
0.391979
0.699385
0.347055
0.682061
0.697592
0.702326
0.697025
0.347071
0.562169
0.690646
0.703504
0.356405
0.699375
0.34574
0.289646
0.706107
0.696514
0.610147
0.244868
0.693299
0.624779
0.559574
0.306154
0.294916
0.346006
0.698996
0.307946
0.310459
0.341291
0.660993
0.324826
0.345625
0.403135
0.705251
0.330657
0.575904
0.668099
0.69906
0.31893
0.7002
0.65873
0.632517
0.390365
0.663546
0.312505
0.327389
0.693764
0.317084
0.647553
0.70198
0.560664
0.331072
0.340046
0.31876
0.518909
0.560069
0.252349
0.709446
0.695574
0.698409
0.321849
0.320878
0.344249
0.6978
0.32869
0.559704
0.581959
0.679118
0.700711
0.309765
0.652967
0.293348
0.682069
0.643945
0.69975
0.657672
0.576558
0.665792
0.689959
0.699978
0.322358
0.354796
0.309453
0.697457
0.536872
0.559425
0.329612
0.398942
0.700083
0.700853
0.563398
0.317628
0.699251
0.516967
0.522702
0.697159
0.311658
0.317902
0.330616
0.696491
0.610972
0.663534
0.700721
0.346414
0.701427
0.657697
0.611138
0.610243
0.701154
0.699613
0.688626
0.699712
0.699731
0.304867
0.698431
0.699443
0.692503
0.699975
0.696906
0.631558
0.321734
0.281611
0.675494
0.349554
0.344304
0.699662
0.335661
0.625695
0.697712
0.70665
0.708621
0.300367
0.699813
0.296535
0.300413
0.689811
0.705766
0.695701
0.317752
0.699778
0.700446
0.684354
0.694631
0.347335
0.691998
0.69933
0.70295
0.392248
0.698768
0.316194
0.69908
0.318881
0.323787
0.6138
0.426179
0.699726
0.69948
0.689937
0.34133
0.691567
0.427263
0.327913
0.703244
0.439894
0.344611
0.699144
0.276427
0.46517
0.675535
0.705883
0.700645
0.442873
0.564552
0.663849
0.688982
0.634064
0.699608
0.494595
0.701366
0.700424
0.655251
0.293514
0.308913
0.422697
0.699265
0.298962
0.66772
0.699035
0.614177
0.690194
0.592433
0.683651
0.689378
0.318896
0.698687
0.697554
0.58305
0.697268
0.699222
0.702989
0.688613
0.322726
0.339028
0.707294
0.543295
0.589051
0.69816
0.706436
0.699817
0.699135
0.698972
0.632421
0.701515
0.699624
0.309112
0.290201
0.261781
0.339754
0.560154
0.444097
0.580727
0.701646
0.692569
0.300843
0.708013
0.699435
0.316454
0.380799
0.563958
0.698192
0.316135
0.290818
0.292061
0.559667
0.702779
0.374963
0.302564
0.321556
0.263946
0.350899
0.35319
0.701793
0.703273
0.703867
0.323734
0.707685
0.629982
0.586204
0.378439
0.312111
0.703106
0.560239
0.340776
0.692101
0.337132
0.697818
0.304944
0.699324
0.316713
0.707534
0.699832
0.320522
0.524982
0.367902
0.699632
0.283639
0.634747
0.297156
0.505259
0.310814
0.63133
0.326871
0.566587
0.571412
0.585956
0.707747
0.383288
0.713137
0.684791
0.699832
0.626687
0.694678
0.313046
0.477086
0.306376
0.698977
0.309223
0.699602
0.515649
0.699059
0.699558
0.54079
0.700494
0.331108
0.299309
0.318054
0.499224
0.618897
0.707181
0.324288
0.337568
0.692441
0.359199
0.295989
0.636134
0.384998
0.344542
0.281753
0.700923
0.65031
0.637561
0.301393
0.712284
0.696898
0.29247
0.326819
0.701731
0.693365
0.680317
0.470269
0.376933
0.355595
0.32404
0.701722
0.678329
0.538673
0.689552
0.305618
0.584557
0.311804
0.560935
0.69954
0.315578
0.313814
0.682549
0.632626
0.699319
0.69977
0.698927
0.699616
0.699394
0.322344
0.345676
0.310164
0.309693
0.606638
0.559461
0.652258
0.312328
0.334977
0.471961
0.293329
0.701877
0.703861
0.328199
0.368455
0.697574
0.302176
0.663748
0.700011
0.716029
0.691306
0.601435
0.346814
0.314041
0.701023
0.316961
0.445629
0.426404
0.684029
0.698837
0.300924
0.32441
0.559503
0.327103
0.696037
0.699024
0.337888
0.341369
0.275738
0.697617
0.297477
0.56008
0.700083
0.618368
0.289792
0.489938
0.700439
0.709759
0.305489
0.713356
0.67419
0.293902
0.70053
0.700694
0.316143
0.344812
0.703137
0.324289
0.30944
0.712936
0.338314
0.705846
0.682663
0.698556
0.67084
0.699581
0.697168
0.684692
0.311215
0.382939
0.688461
0.706956
0.420012
0.699678
0.379729
0.697787
0.70066
0.568744
0.657048
0.470667
0.43228
0.707833
0.700127
0.700107
0.699965
0.696228
0.562538
0.700806
0.55951
0.702824
0.702967
0.70105
0.560468
0.685327
0.292859
0.702588
0.330318
0.698634
0.698125
0.699778
0.711113
0.695591
0.342224
0.322794
0.338243
0.307251
0.714961
0.313911
0.320157
0.695085
0.291991
0.699655
0.324168
0.714083
0.704081
0.338435
0.359764
0.342544
0.699075
0.306255
0.707186
0.700944
0.319348
0.703278
0.527142
0.349693
0.326496
0.291801
0.689426
0.346985
0.698743
0.591923
0.373738
0.697805
0.700815
0.698942
0.336567
0.590503
0.296021
0.708001
0.689458
0.697974
0.353435
0.707242
0.69816
0.700313
0.408635
0.698983
0.34323
0.31817
0.700163
0.439532
0.699359
0.472577
0.350636
0.408572
0.700038
0.321326
0.293378
0.329148
0.545622
0.563191
0.701824
0.281564
0.624866
0.697116
0.516882
0.490391
0.341917
0.529462
0.352176
0.313859
0.707333
0.319695
0.333332
0.70008
0.699688
0.317669
0.697488
0.321692
0.563154
0.33069
0.702856
0.562245
0.696786
0.672162
0.345978
0.313876
0.29627
0.691241
0.703274
0.561245
0.527844
0.354258
0.321105
0.689647
0.312308
0.705447
0.364127
0.565894
0.681834
0.315637
0.318747
0.319929
0.323395
0.324941
0.684515
0.713686
0.317719
0.699624
0.6492
0.38177
0.322
0.699572
0.341277
0.70458
0.393694
0.697596
0.662409
0.6999
0.564823
0.337401
0.699033
0.69876
0.700847
0.340174
0.694653
0.573825
0.34294
0.699329
0.677456
0.701769
0.71467
0.699358
0.700671
0.700727
0.693029
0.699955
0.339172
0.698965
0.320287
0.482599
0.699392
0.296244
0.709064
0.700124
0.338278
0.699414
0.341244
0.29494
0.701914
0.696051
0.699727
0.318749
0.715793
0.615066
0.331807
0.321647
0.703206
0.6964
0.377627
0.340199
0.700354
0.699565
0.352673
0.653361
0.699603
0.652109
0.312492
0.341194
0.295762
0.66288
0.312315
0.712651
0.696904
0.690242
0.635261
0.70356
0.319662
0.701961
0.59871
0.699743
0.660273
0.297685
0.308796
0.274905
0.698024
0.700634
0.390658
0.660333
0.342842
0.679245
0.698523
0.294947
0.6715
0.711972
0.635692
0.322283
0.306841
0.340303
0.700638
0.699336
0.612359
0.470401
0.702082
0.337846
0.640544
0.559653
0.707315
0.322157
0.610658
0.340609
0.698765
0.261535
0.70756
0.701963
0.301488
0.700553
0.510815
0.560713
0.66053
0.559634
0.699818
0.432134
0.688177
0.699821
0.698247
0.707526
0.431708
0.559624
0.252062
0.700044
0.291631
0.326227
0.292473
0.321489
0.349278
0.320638
0.699685
0.357646
0.316985
0.672678
0.700545
0.714451
0.421266
0.693822
0.68847
0.690837
0.271746
0.649055
0.697185
0.332386
0.3394
0.313931
0.639116
0.461365
0.336935
0.63723
0.293201
0.561558
0.455971
0.298491
0.433658
0.656891
0.339825
0.696239
0.312113
0.566546
0.375622
0.701267
0.390165
0.674426
0.55955
0.695646
0.493333
0.318641
0.702158
0.699563
0.340728
0.296302
0.691688
0.322778
0.698842
0.324581
0.526255
0.274169
0.696957
0.340294
0.699648
0.324204
0.698632
0.701512
0.700034
0.561262
0.255836
0.299231
0.398082
0.703019
0.69432
0.699589
0.623763
0.339243
0.700568
0.341582
0.703385
0.690376
0.434714
0.368166
0.699759
0.707467
0.296667
0.55743
0.701945
0.699879
0.698604
0.313353
0.64245
0.324742
0.69991
0.296645
0.638549
0.703422
0.702979
0.699896
0.37789
0.700053
0.335675
0.31945
0.695304
0.561315
0.550771
0.707083
0.559505
0.338022
0.697396
0.70133
0.700865
0.296268
0.41843
0.688833
0.313598
0.697962
0.699488
0.70859
0.700935
0.297463
0.460311
0.652881
0.300068
0.701545
0.699385
0.47943
0.702016
0.275585
0.700519
0.697323
0.67808
0.702207
0.305999
0.298681
0.707063
0.714378
0.335788
0.397657
0.34297
0.300869
0.309777
0.292074
0.335795
0.350761
0.707132
0.29503
0.313516
0.700362
0.553926
0.559846
0.394341
0.327615
0.697492
0.463575
0.557149
0.699005
0.385808
0.661061
0.578341
0.592742
0.710997
0.307421
0.701391
0.658052
0.332121
0.31702
0.434456
0.698469
0.594797
0.699321
0.691938
0.707045
0.710346
0.356881
0.70056
0.674145
0.703359
0.323836
0.69753
0.680732
0.353071
0.415901
0.276033
0.294992
0.291791
0.598145
0.676838
0.705968
0.314971
0.363907
0.699786
0.289713
0.700752
0.701138
0.711373
0.677687
0.701914
0.333268
0.295573
0.292961
0.595689
0.303148
0.699906
0.292815
0.694112
0.692095
0.698398
0.339667
0.452763
0.426662
0.702524
0.339363
0.312987
0.699902
0.711857
0.659665
0.69173
0.703332
0.699033
0.351893
0.610993
0.699427
0.487328
0.704632
0.700619
0.699389
0.406436
0.39076
0.700853
0.453039
0.640099
0.325657
0.703307
0.70156
0.385628
0.316831
0.705709
0.489785
0.699931
0.700773
0.348443
0.314627
0.564652
0.494477
0.435737
0.700736
0.703054
0.350449
0.702541
0.561323
0.712638
0.357166
0.596803
0.347967
0.700526
0.699597
0.699199
0.703963
0.561221
0.357454
0.401581
0.706825
0.327053
0.587379
0.370133
0.699888
0.290252
0.661391
0.699539
0.561586
0.353778
0.559668
0.562922
0.310895
0.701369
0.290898
0.700959
0.348128
0.315124
0.288072
0.701136
0.698644
0.332772