# vtk DataFile Version 1.0
unstructured grid
ascii
DATASET UNSTRUCTURED_GRID
points 13672 float
0.0796578 -0.059106 0
0.00128732 0.00159165 0
0.00227961 -0.00102548 0
0.0791586 -0.0598787 0
-0.0546216 0.01 0
0.000495206 0.025 0
0.0800549 -0.035 0
0.135172 -0.08 0
-0.0546216 -0.0451168 0
0.000495206 -0.0301168 0
0.0800549 -0.0901168 0
0.135172 -0.135117 0
-0.0546216 -0.0451168 -0.00551168
0.000495206 -0.0301168 -0.00551168
0.0800549 -0.0901168 -0.00551168
0.135172 -0.135117 -0.00551168
0.135172 -0.08 -0.00551168
0.0800549 -0.035 -0.00551168
0.000495206 0.025 -0.00551168
-0.0546216 0.01 -0.00551168
0.00128732 0.00159165 -0.00551168
0.00227961 -0.00102548 -0.00551168
0.0791586 -0.0598787 -0.00551168
0.0796578 -0.059106 -0.00551168
0.00165953 -0.000990923 0
0.00119576 -0.000874076 0
0.000866021 -0.000641801 0
0.000645147 -0.000349912 0
0.00052235 -1.7281e-05 0
0.00049972 0.000348016 0
0.000601632 0.000737716 0
0.000861774 0.0011403 0
0.00157235 0.00183217 0
0.00188647 0.00206725 0
0.00222612 0.00230203 0
0.00258713 0.00254351 0
0.00296826 0.00279524 0
0.00337118 0.00305664 0
0.00379785 0.00332658 0
0.00425045 0.00360349 0
0.00473139 0.00388521 0
0.0052432 0.00416895 0
0.0057881 0.00445204 0
0.00636753 0.00473281 0
0.00698281 0.00500961 0
0.00763526 0.00528058 0
0.00832616 0.00554366 0
0.00905691 0.00579603 0
0.00982918 0.00603333 0
0.0106445 0.00625033 0
0.0115038 0.00644128 0
0.0124073 0.00660297 0
0.0133543 0.00673414 0
0.0143444 0.00683382 0
0.0153769 0.00690031 0
0.0164512 0.00693173 0
0.0175666 0.00692547 0
0.0187219 0.00687822 0
0.0199156 0.00678477 0
0.0211454 0.00663864 0
0.0224084 0.00643275 0
0.0237018 0.00616676 0
0.0250249 0.00584739 0
0.026375 0.00547298 0
0.0277479 0.00503752 0
0.0291386 0.00453545 0
0.0305433 0.0039653 0
0.0319572 0.0033256 0
0.0333681 0.00260019 0
0.034775 0.00179799 0
0.0361793 0.000930615 0
0.0375798 3.12222e-06 0
0.0389689 -0.000988429 0
0.0403357 -0.00205109 0
0.041675 -0.00318283 0
0.0429849 -0.00437751 0
0.0442643 -0.00562904 0
0.0455126 -0.00693089 0
0.0467314 -0.00827518 0
0.0479204 -0.00965638 0
0.0490661 -0.0110799 0
0.0501515 -0.0125519 0
0.0511696 -0.0140695 0
0.0521492 -0.0156071 0
0.0531202 -0.0171411 0
0.0540851 -0.0186663 0
0.0550431 -0.0201798 0
0.0559923 -0.0216793 0
0.0569311 -0.0231626 0
0.0578582 -0.0246273 0
0.0587723 -0.0260715 0
0.0596721 -0.027493 0
0.0605563 -0.02889 0
0.0614241 -0.0302609 0
0.0622742 -0.0316042 0
0.063106 -0.0329183 0
0.0639186 -0.034202 0
0.0647113 -0.0354543 0
0.0654835 -0.0366743 0
0.0662345 -0.0378613 0
0.0669642 -0.0390145 0
0.0676726 -0.0401333 0
0.0683597 -0.0412172 0
0.0690246 -0.0422665 0
0.0696662 -0.0432819 0
0.0702841 -0.0442636 0
0.0708793 -0.0452111 0
0.0714538 -0.0461237 0
0.072009 -0.047001 0
0.0725452 -0.0478434 0
0.0730611 -0.0486524 0
0.073556 -0.0494294 0
0.0740291 -0.0501756 0
0.0744812 -0.0508916 0
0.0749138 -0.0515773 0
0.0753285 -0.0522331 0
0.0757266 -0.0528592 0
0.076109 -0.0534564 0
0.0764753 -0.0540264 0
0.0768243 -0.054571 0
0.0771553 -0.0550919 0
0.0774679 -0.0555901 0
0.0777617 -0.0560669 0
0.0780369 -0.056523 0
0.0782958 -0.0569578 0
0.0785421 -0.0573703 0
0.0787786 -0.0577603 0
0.0790073 -0.0581279 0
0.0792295 -0.058474 0
0.0794462 -0.0587995 0
0.0798803 -0.0594162 0
0.0800272 -0.0596588 0
0.0800357 -0.0598891 0
0.0799275 -0.0600784 0
0.0797205 -0.0601773 0
0.0794593 -0.0601051 0
0.0789155 -0.0596491 0
0.0786707 -0.0593963 0
0.0784111 -0.0591319 0
0.0781372 -0.0588542 0
0.0778566 -0.0585548 0
0.0775715 -0.0582308 0
0.0772803 -0.0578828 0
0.0769832 -0.0575099 0
0.0766822 -0.0571097 0
0.0763801 -0.0566796 0
0.0760759 -0.0562196 0
0.0757623 -0.0557337 0
0.0754359 -0.0552232 0
0.0750951 -0.0546879 0
0.0747379 -0.054128 0
0.0743626 -0.0535435 0
0.0739688 -0.0529338 0
0.0735559 -0.0522981 0
0.0731238 -0.0516357 0
0.0726718 -0.050946 0
0.0721991 -0.0502288 0
0.0717046 -0.049484 0
0.0711872 -0.0487117 0
0.0706461 -0.047912 0
0.0700804 -0.0470849 0
0.0694892 -0.0462308 0
0.0688718 -0.0453499 0
0.0682271 -0.0444431 0
0.0675544 -0.043511 0
0.0668527 -0.0425546 0
0.0661215 -0.0415748 0
0.06536 -0.040573 0
0.0645676 -0.0395504 0
0.0637439 -0.0385087 0
0.0628887 -0.0374493 0
0.062002 -0.0363741 0
0.0610838 -0.0352847 0
0.0601345 -0.0341831 0
0.0591547 -0.033071 0
0.0581456 -0.0319502 0
0.0571083 -0.0308224 0
0.0560444 -0.0296893 0
0.0549562 -0.028552 0
0.053845 -0.0274126 0
0.0527113 -0.0262746 0
0.051554 -0.0251427 0
0.0503724 -0.0240222 0
0.0491675 -0.0229164 0
0.047941 -0.0218282 0
0.0466955 -0.0207597 0
0.0454337 -0.0197126 0
0.0441592 -0.0186878 0
0.0428751 -0.0176863 0
0.0415841 -0.0167097 0
0.0402878 -0.0157609 0
0.0389879 -0.0148428 0
0.0376864 -0.0139575 0
0.0363853 -0.013107 0
0.0350871 -0.0122931 0
0.0337942 -0.0115164 0
0.0325095 -0.0107772 0
0.0312357 -0.0100756 0
0.0299758 -0.00941024 0
0.0287337 -0.00877784 0
0.0275126 -0.00817571 0
0.0263139 -0.00760375 0
0.0251376 -0.00706528 0
0.0239829 -0.0065649 0
0.0228537 -0.00609619 0
0.0217522 -0.00565563 0
0.0206795 -0.00524226 0
0.0196364 -0.00485507 0
0.0186233 -0.00449318 0
0.0176408 -0.00415577 0
0.016689 -0.00384204 0
0.0157682 -0.00355115 0
0.0148783 -0.00328218 0
0.0140192 -0.00303468 0
0.0131906 -0.00280795 0
0.0123925 -0.00260016 0
0.0116246 -0.00241012 0
0.0108864 -0.00223769 0
0.0101774 -0.00208212 0
0.00949701 -0.00194206 0
0.00884483 -0.0018163 0
0.0082202 -0.0017039 0
0.00762247 -0.00160391 0
0.00705097 -0.00151528 0
0.006505 -0.00143697 0
0.0059838 -0.00136806 0
0.00548662 -0.00130772 0
0.00501265 -0.00125519 0
0.00456114 -0.00120954 0
0.00413136 -0.00116914 0
0.00372257 -0.00113251 0
0.00333398 -0.00109853 0
0.00296466 -0.00106798 0
0.00261363 -0.0010431 0
-0.052721 -0.0445996 0
-0.0508204 -0.0440823 0
-0.0489199 -0.0435651 0
-0.0470193 -0.0430478 0
-0.0451187 -0.0425306 0
-0.0432181 -0.0420134 0
-0.0413175 -0.0414961 0
-0.039417 -0.0409789 0
-0.0375164 -0.0404616 0
-0.0356158 -0.0399444 0
-0.0337152 -0.0394271 0
-0.0318146 -0.0389099 0
-0.0299141 -0.0383927 0
-0.0280135 -0.0378754 0
-0.0261129 -0.0373582 0
-0.0242123 -0.0368409 0
-0.0223117 -0.0363237 0
-0.0204112 -0.0358065 0
-0.0185106 -0.0352892 0
-0.01661 -0.034772 0
-0.0147094 -0.0342547 0
-0.0128088 -0.0337375 0
-0.0109083 -0.0332202 0
-0.00900769 -0.032703 0
-0.00710711 -0.0321858 0
-0.00520653 -0.0316685 0
-0.00330595 -0.0311513 0
-0.00140537 -0.030634 0
0.00190689 -0.0299614 0
0.00332271 -0.0298498 0
0.00474133 -0.0297825 0
0.00616136 -0.0297597 0
0.0075814 -0.0297814 0
0.00900007 -0.0298477 0
0.010416 -0.0299583 0
0.0118278 -0.0301127 0
0.0132342 -0.0303103 0
0.0146339 -0.0305504 0
0.0160259 -0.0308322 0
0.0174091 -0.0311546 0
0.0187824 -0.0315166 0
0.020145 -0.031917 0
0.0214961 -0.0323546 0
0.0228351 -0.032828 0
0.0241613 -0.0333361 0
0.0254744 -0.0338774 0
0.0267738 -0.0344507 0
0.0280592 -0.0350545 0
0.0293306 -0.0356877 0
0.0305875 -0.0363488 0
0.0318301 -0.0370367 0
0.0330581 -0.0377501 0
0.0342717 -0.0384879 0
0.0354708 -0.0392489 0
0.0366556 -0.0400321 0
0.0378262 -0.0408363 0
0.0389828 -0.0416607 0
0.0401254 -0.0425042 0
0.0412543 -0.0433659 0
0.0423698 -0.0442451 0
0.043472 -0.0451408 0
0.0445612 -0.0460523 0
0.0456375 -0.0469789 0
0.0467013 -0.0479199 0
0.0477529 -0.0488746 0
0.0487923 -0.0498424 0
0.04982 -0.0508227 0
0.0508362 -0.051815 0
0.051841 -0.0528187 0
0.0528348 -0.0538333 0
0.0538178 -0.0548584 0
0.0547903 -0.0558935 0
0.0557524 -0.0569382 0
0.0567045 -0.0579922 0
0.0576467 -0.0590549 0
0.0585792 -0.0601261 0
0.0595024 -0.0612055 0
0.0604163 -0.0622926 0
0.0613212 -0.0633873 0
0.0622174 -0.0644891 0
0.0631049 -0.0655979 0
0.0639841 -0.0667134 0
0.064855 -0.0678353 0
0.0657179 -0.0689633 0
0.0665729 -0.0700974 0
0.0674202 -0.0712372 0
0.06826 -0.0723826 0
0.0690925 -0.0735333 0
0.0699178 -0.0746892 0
0.070736 -0.0758501 0
0.0715473 -0.0770159 0
0.0723518 -0.0781863 0
0.0731498 -0.0793612 0
0.0739412 -0.0805405 0
0.0747264 -0.081724 0
0.0755053 -0.0829116 0
0.0762781 -0.0841033 0
0.0770449 -0.0852987 0
0.0778059 -0.0864979 0
0.0785611 -0.0877007 0
0.0793108 -0.088907 0
0.0814681 -0.0912706 0
0.0828814 -0.0924245 0
0.0842946 -0.0935783 0
0.0857079 -0.0947322 0
0.0871211 -0.095886 0
0.0885344 -0.0970399 0
0.0899476 -0.0981937 0
0.0913609 -0.0993476 0
0.0927741 -0.100501 0
0.0941874 -0.101655 0
0.0956006 -0.102809 0
0.0970139 -0.103963 0
0.0984272 -0.105117 0
0.0998404 -0.106271 0
0.101254 -0.107424 0
0.102667 -0.108578 0
0.10408 -0.109732 0
0.105493 -0.110886 0
0.106907 -0.11204 0
0.10832 -0.113194 0
0.109733 -0.114348 0
0.111146 -0.115501 0
0.11256 -0.116655 0
0.113973 -0.117809 0
0.115386 -0.118963 0
0.116799 -0.120117 0
0.118213 -0.121271 0
0.119626 -0.122424 0
0.121039 -0.123578 0
0.122452 -0.124732 0
0.123866 -0.125886 0
0.125279 -0.12704 0
0.126692 -0.128194 0
0.128105 -0.129348 0
0.129519 -0.130501 0
0.130932 -0.131655 0
0.132345 -0.132809 0
0.133758 -0.133963 0
0.135172 -0.133216 0
0.135172 -0.131316 0
0.135172 -0.129415 0
0.135172 -0.127514 0
0.135172 -0.125614 0
0.135172 -0.123713 0
0.135172 -0.121813 0
0.135172 -0.119912 0
0.135172 -0.118012 0
0.135172 -0.116111 0
0.135172 -0.11421 0
0.135172 -0.11231 0
0.135172 -0.110409 0
0.135172 -0.108509 0
0.135172 -0.106608 0
0.135172 -0.104708 0
0.135172 -0.102807 0
0.135172 -0.100906 0
0.135172 -0.0990058 0
0.135172 -0.0971052 0
0.135172 -0.0952046 0
0.135172 -0.0933041 0
0.135172 -0.0914035 0
0.135172 -0.0895029 0
0.135172 -0.0876023 0
0.135172 -0.0857017 0
0.135172 -0.0838012 0
0.135172 -0.0819006 0
0.133758 -0.0788462 0
0.132345 -0.0776923 0
0.130932 -0.0765385 0
0.129519 -0.0753846 0
0.128105 -0.0742308 0
0.126692 -0.0730769 0
0.125279 -0.0719231 0
0.123866 -0.0707692 0
0.122452 -0.0696154 0
0.121039 -0.0684615 0
0.119626 -0.0673077 0
0.118213 -0.0661538 0
0.116799 -0.065 0
0.115386 -0.0638462 0
0.113973 -0.0626923 0
0.11256 -0.0615385 0
0.111146 -0.0603846 0
0.109733 -0.0592308 0
0.10832 -0.0580769 0
0.106907 -0.0569231 0
0.105493 -0.0557692 0
0.10408 -0.0546154 0
0.102667 -0.0534615 0
0.101254 -0.0523077 0
0.0998404 -0.0511538 0
0.0984272 -0.05 0
0.0970139 -0.0488462 0
0.0956006 -0.0476923 0
[...]
CELL_DATA 13116
SCALARS rho float
LOOKUP_TABLE default
0.624043
0.69694
0.321675
0.700777
0.702082
0.6945
0.324665
0.70122
0.543834
0.702093
0.329875
0.290056
0.701963
0.315289
0.305091
0.694726
0.617883
0.707059
0.691498
0.343328
0.623268
0.319361
0.314152
0.705178
0.675231
0.698569
0.702126
0.322084
0.667273
0.703833
0.564545
0.291637
0.628005
0.456389
0.322689
0.622777
0.714323
0.69249
0.691988
0.699259
0.690807
0.70126
0.478703
0.324091
0.691841
0.691644
0.694679
0.692363
0.311014
0.525023
0.700178
0.475511
0.322325
0.609631
0.618599
0.662632
0.324993
0.705723
0.526909
0.301769
0.315617
0.701367
0.697016
0.691855
0.566302
0.333596
0.694993
0.710642
0.693336
0.595621
0.306339
0.659313
0.321055
0.329326
0.564874
0.324164
0.701244
0.702456
0.332336
0.707023
0.711734
0.699124
0.704357
0.692701
0.69759
0.406078
0.334967
0.709982
0.700006
0.346076
0.295803
0.696785
0.703494
0.699792
0.710257
0.672835
0.677567
0.559847
0.564177
0.664608
0.708624
0.695609
0.690652
0.422106
0.697342
0.273935
0.34679
0.51276
0.31968
0.671453
0.540654
0.698558
0.670243
0.709551
0.707144
0.695242
0.330504
0.384758
0.700013
0.697669
0.710485
0.324247
0.693524
0.295238
0.700291
0.437326
0.333415
0.503613
0.321426
0.524426
0.70024
0.693379
0.481534
0.315281
0.458531
0.667254
0.559124
0.698353
0.709054
0.697814
0.699907
0.69482
0.504899
0.700614
0.696969
0.285832
0.323144
0.698733
0.702705
0.699818
0.526173
0.692621
0.692225
0.32773
0.702192
0.699239
0.312387
0.708412
0.563894
0.709897
0.70559
0.330562
0.70404
0.316039
0.3255
0.701301
0.700277
0.707353
0.323268
0.437446
0.403647
0.559127
0.303362
0.491715
0.69581
0.311825
0.311935
0.320674
0.698441
0.690454
0.339233
0.425029
0.574439
0.714066
0.690485
0.531905
0.333253
0.689936
0.696398
0.458835
0.698555
0.69867
0.616907
0.306542
0.698393
0.691208
0.702366
0.689903
0.700141
0.372883
0.424095
0.674235
0.498901
0.325452
0.705391
0.692784
0.482345
0.680232
0.292458
0.333735
0.325488
0.692137
0.312458
0.344669
0.340473
0.327328
0.366311
0.688915
0.700369
0.378954
0.326357
0.69497
0.535029
0.33895
0.6324
0.701745
0.697148
0.322512
0.695538
0.361236
0.702298
0.293073
0.628436
0.65944
0.560682
0.699967
0.647233
0.302403
0.432015
0.709517
0.565329
0.69091
0.559137
0.66685
0.701142
0.312871
0.699036
0.702283
0.563744
0.32661
0.312767
0.692527
0.699062
0.589871
0.692853
0.612815
0.708214
0.330902
0.306425
0.378762
0.290878
0.695937
0.702445
0.701448
0.337218
0.693341
0.336092
0.404353
0.697494
0.329529
0.69892
0.700662
0.564851
0.705903
0.302543
0.564386
0.709844
0.562216
0.698049
0.336688
0.340292
0.309158
0.664341
0.323232
0.320846
0.33431
0.333025
0.694584
0.316543
0.700055
0.701367
0.337422
0.341722
0.336972
0.442018
0.323597
0.71012
0.686073
0.698059
0.33015
0.691487
0.665444
0.303652
0.30271
0.688607
0.698773
0.689877
0.332976
0.691335
0.433313
0.693587
0.701014
0.699842
0.700951
0.308332
0.695451
0.30241
0.692106
0.701397
0.708157
0.347247
0.331424
0.702236
0.337961
0.695536
0.70137
0.3448
0.707422
0.704547
0.339089
0.692319
0.703515
0.295684
0.700486
0.373302
0.670742
0.702115
0.394665
0.708489
0.338652
0.706679
0.333743
0.683022
0.693399
0.702113
0.321233
0.35151
0.697652
0.327162
0.70552
0.696982
0.418785
0.561482
0.331219
0.317829
0.700193
0.649804
0.711677
0.339455
0.314021
0.698952
0.701385
0.324499
0.701007
0.326867
0.28131
0.697941
0.701859
0.526605
0.353775
0.698063
0.568239
0.693747
0.696949
0.704837
0.538083
0.33413
0.295604
0.339897
0.692985
0.339868
0.574167
0.346754
0.302044
0.346793
0.533892
0.106973
0.328182
0.693982
0.295074
0.703554
0.667553
0.691395
0.708089
0.699516
0.318532
0.341064
0.382311
0.336649
0.704601
0.66708
0.690908
0.668273
0.697363
0.692105
0.699015
0.692838
0.703175
0.705496
0.706926
0.692747
0.384847
0.482587
0.618429
0.317432
0.684046
0.660451
0.324307
0.69517
0.564827
0.309593
0.345488
0.3473
0.333803
0.677697
0.314736
0.307017
0.6935
0.334415
0.659646
0.351073
0.68855
0.710237
0.325432
0.315875
0.700077
0.439826
0.353981
0.334662
0.345452
0.319382
0.340916
0.345533
0.323776
0.410755
0.337381
0.695064
0.32896
0.700308
0.347285
0.294142
0.465547
0.266845
0.344325
0.274503
0.700989
0.420713
0.68688
0.526402
0.335507
0.682929
0.700006
0.403657
0.70748
0.694148
0.693138
0.340047
0.563606
0.387441
0.704648
0.564775
0.316351
0.315593
0.696179
0.337884
0.39606
0.694321
0.346286
0.708206
0.697038
0.340707
0.311632
0.306019
0.486676
0.302518
0.310757
0.304604
0.302981
0.701003
0.700881
0.447747
0.665956
0.462257
0.698232
0.351861
0.319046
0.550901
0.316954
0.694134
0.303919
0.362847
0.476049
0.691926
0.700233
0.668216
0.343804
0.31744
0.664268
0.70104
0.650038
0.65788
0.695904
0.695786
0.340459
0.709476
0.661862
0.709125
0.338779
0.323789
0.709827
0.70263
0.706831
0.701789
0.699738
0.698866
0.706289
0.707858
0.691268
0.339961
0.691892
0.336773
0.29325
0.345918
0.700678
0.692575
0.332429
0.698854
0.672503
0.3475
0.680131
0.69784
0.709002
0.3218
0.320272
0.703448
0.354867
0.352728
0.270166
0.341948
0.69456
0.303704
0.700371
0.328124
0.696925
0.699905
0.692846
0.701518
0.35544
0.341576
0.693269
0.702796
0.705335
0.701055
0.702266
0.447533
0.33915
0.318058
0.691086
0.536959
0.348169
0.440576
0.300918
0.700642
0.696148
0.337741
0.320889
0.700017
0.402427
0.692868
0.69902
0.322037
0.36116
0.701923
0.564565
0.317207
0.700112
0.700214
0.692989
0.323208
0.559393
0.326901
0.560409
0.708643
0.355568
0.361074
0.321608
0.559361
0.320023
0.330742
0.390002
0.687052
0.710158
0.330873
0.304013
0.344159
0.680245
0.322324
0.690844
0.293175
0.660583
0.701774
0.349531
0.315862
0.314863
0.449741
0.318604
0.699479
0.331557
0.316126
0.68835
0.3102
0.692882
0.695797
0.56005
0.343655
0.693897
0.703188
0.702386
0.691239
0.701008
0.697251
0.287594
0.618334
0.386298
0.693986
0.339056
0.70097
0.514652
0.321615
0.55646
0.703306
0.323575
0.693827
0.296083
0.307459
0.692834
0.701076
0.299739
0.282675
0.331481
0.284286
0.700936
0.704974
0.323284
0.339333
0.705773
0.698248
0.662341
0.703212
0.694915
0.331014
0.70211
0.411254
0.700062
0.392531
0.669808
0.452553
0.695444
0.711492
0.66104
0.347863
0.32046
0.691038
0.667321
0.603845
0.70339
0.29313
0.711981
0.70217
0.353687
0.480111
0.702861
0.344892
0.573634
0.709591
0.327893
0.698391
0.709068
0.320713
0.710797
0.308486
0.699979
0.324891
0.691955
0.696874
0.320029
0.691167
0.703769
0.703673
0.673242
0.698682
0.663325
0.33188
0.428949
0.294536
0.32881
0.560093
0.646463
0.695515
0.702924
0.340664
0.32988
0.703353
0.701572
0.701825
0.700696
0.34555
0.706679
0.70228
0.343736
0.294399
0.700539
0.692486
0.699847
0.281243
0.666698
0.326009
0.711132
0.697031
0.638452
0.695743
0.346502
0.694745
0.700145
0.703743
0.701193
0.690726
0.378899
0.705117
0.333605
0.697519
0.702234
0.436877
0.697094
0.667057
0.699723
0.435146
0.407167
0.662295
0.701226
0.354222
0.355637
0.32978
0.337253
0.696969
0.712363
0.661864
0.335219
0.335046
0.69278
0.708668
0.300366
0.330788
0.444925
0.70984
0.689991
0.698682
0.70787
0.334553
0.354267
0.562608
0.294625
0.344214
0.329977
0.69003
0.325449
0.355018
0.655847
0.693626
0.698277
0.69217
0.689481
0.331071
0.30694
0.330942
0.537072
0.422092
0.294449
0.711232
0.707924
0.696894
0.69164
0.286844
0.346373
0.701896
0.349053
0.690504
0.696422
0.563952
0.299807
0.346068
0.699569
0.561492
0.646705
0.301373
0.695727
0.692345
0.652093
0.699794
0.700616
0.563445
0.695349
0.346129
0.689315
0.578953
0.697256
0.711318
0.560297
0.698756
0.559103
0.696721
0.315977
0.313466
0.347285
0.563896
0.518607
0.349881
0.700075
0.705673
0.288841
0.70108
0.326683
0.700515
0.519816
0.307421
0.70139
0.705495
0.348644
0.605517
0.567379
0.324855
0.699941
0.329796
0.27284
0.689596
0.672129
0.467312
0.690693
0.329462
0.70408
0.312316
0.286311
0.69237
0.347678
0.675986
0.300513
0.699181
0.67079
0.561361
0.700174
0.299064
0.315336
0.697016
0.484978
0.702042
0.467606
0.664114
0.691717
0.703925
0.492201
0.670926
0.698402
0.702207
0.695027
0.337565
0.356893
0.578818
0.698436
0.702312
0.36005
0.690674
0.649569
0.380146
0.29929
0.708716
0.712398
0.559288
0.559901
0.694524
0.710094
0.687491
0.713362
0.298235
0.704414
0.441928
0.699028
0.692409
0.330932
0.7011
0.701736
0.315249
0.300522
0.337688
0.560406
0.331256
0.687297
0.707795
0.704278
0.31427
0.69386
0.322959
0.665028
0.687794
0.635694
0.711411
0.677135
0.681624
0.712242
0.544674
0.693804
0.325066
0.69004
0.692236
0.471155
0.559235
0.71211
0.310277
0.296178
0.324208
0.699806
0.356937
0.560707
0.331532
0.701111
0.314639
0.453153
0.295697
0.705027
0.700666
0.609535
0.304446
0.683081
0.689331
0.334603
0.662569
0.700997
0.293315
0.66463
0.561065
0.701855
0.690865
0.315282
0.509675
0.704852
0.691591
0.697502
0.351617
0.402365
0.692386
0.562613
0.564758
0.560949
0.610439
0.694552
0.603983
0.698897
0.352088
0.322995
0.560621
0.702138
0.687904
0.332548
0.690057
0.628059
0.670938
0.322318
0.38735
0.70114
0.700702
0.664675
0.335751
0.691478
0.559575
0.324966
0.673896
0.707993
0.324584
0.293759
0.302614
0.696786
0.323038
0.340504
0.694119
0.472923
0.702107
0.706187
0.32295
0.339955
0.70104
0.315157
0.315068
0.56304
0.286736
0.355722
0.666612
0.701057
0.694451
0.334971
0.32907
0.328671
0.695277
0.273485
0.694065
0.312077
0.697548
0.699204
0.691787
0.697199
0.695311
0.697264
0.690374
0.701534
0.693754
0.308681
0.331576
0.696751
0.689579
0.492582
0.697543
0.647303
0.68726
0.696009
0.32472
0.697215
0.701099
0.69353
0.325903
0.695048
0.324097
0.692943
0.461141
0.707219
0.691264
0.309092
0.706042
0.345359
0.450476
0.697164
0.328922
0.708591
0.559017
0.701225
0.332757
0.694007
0.336272
0.298762
0.302293
0.340537
0.694338
0.302134
0.699785
0.676436
0.336765
0.307028
0.453231
0.659665
0.698881
0.697532
0.34321
0.336756
0.325332
0.296715
0.301855
0.701083
0.698912
0.32266
0.684147
0.708571
0.304001
0.700916
0.708383
0.68539
0.328855
0.561743
0.698171
0.704524
0.699507
0.303647
0.693622
0.70356
0.695172
0.708465
0.689307
0.320999
0.303461
0.692528
0.573325
0.349326
0.692192
0.305277
0.671444
0.694968
0.699818
0.700068
0.29684
0.697283
0.373892
0.32606
0.707345
0.704089
0.702478
0.699109
0.713782
0.299283
0.701787
0.30023
0.481848
0.701263
0.564096
0.704212
0.326774
0.302149
0.70225
0.315087
0.703396
0.693823
0.41915
0.329975
0.698423
0.300686
0.691122
0.703616
0.702228
0.301245
0.313574
0.496364
0.538514
0.693537
0.468133
0.688883
0.697245
0.700578
0.559493
0.704218
0.323282
0.328564
0.702747
0.689356
0.697589
0.433597
0.327496
0.706945
0.302403
0.695128
0.671822
0.332589
0.703802
0.337588
0.700295
0.321554
0.702474
0.301956
0.693415
0.690485
0.289712
0.700215
0.701254
0.293365
0.654528
0.691213
0.63937
0.267044
0.354081
0.464074
0.703003
0.695707
0.330818
0.667187
0.709163
0.688131
0.316258
0.678974
0.694934
0.383739
0.689136
0.693884
0.326903
0.692812
0.559761
0.321734
0.672154
0.334758
0.698591
0.330415
0.280003
0.702815
0.340857
0.343782
0.300782
0.69495
0.69501
0.392808
0.691384
0.353918
0.69833
0.337401
0.695003
0.348696
0.692796
0.692469
0.700746
0.658428
0.6211
0.690553
0.684073
0.322113
0.68843
0.703828
0.560487
0.700593
0.455443
0.413183
0.701836
0.337026
0.659389
0.3276
0.690742
0.310561
0.306101
0.705818
0.690544
0.341352
0.698651
0.707918
0.560333
0.700558
0.559313
0.346425
0.701232
0.343716
0.314031
0.700009
0.707614
0.701141
0.700233
0.293618
0.329524
0.32792
0.696697
0.672164
0.352615
0.701399
0.33277
0.330845
0.323536
0.700022
0.391942
0.70173
0.695616
0.686626
0.701282
0.693014
0.647402
0.701377
0.404511
0.293722
0.341662
0.559338
0.559664
0.330789
0.701116
0.69574
0.701085
0.315428
0.439995
0.697185
0.280863
0.697655
0.687059
0.344634
0.689944
0.696883
0.350349
0.694456
0.315239
0.695171
0.70212
0.695048
0.3009
0.430617
0.708913
0.329675
0.374883
0.699115
0.335809
0.690075
0.694874
0.698864
0.707794
0.336322
0.557653
0.707439
0.691527
0.34774
0.699858
0.313598
0.276816
0.693471
0.691059
0.674941
0.238606
0.691479
0.685624
0.565137
0.335835
0.325786
0.355092
0.698418
0.325974
0.310842
0.320387
0.684978
0.313002
0.330563
0.408928
0.693975
0.346472
0.647869
0.689471
0.699676
0.332491
0.692831
0.706742
0.680593
0.392377
0.707117
0.322494
0.336566
0.694126
0.341691
0.698739
0.709971
0.56155
0.345017
0.331594
0.324483
0.66041
0.559248
0.243945
0.692134
0.694562
0.707576
0.335646
0.299519
0.336376
0.694829
0.349822
0.558974
0.669209
0.690324
0.691834
0.336233
0.696452
0.290008
0.688591
0.695553
0.701625
0.673451
0.567449
0.708775
0.697506
0.702315
0.334959
0.345963
0.332897
0.707172
0.541042
0.564211
0.345163
0.397817
0.705241
0.693102
0.607083
0.341936
0.699408
0.657671
0.668731
0.695669
0.318657
0.34256
0.328742
0.692818
0.673598
0.707016
0.69802
0.337696
0.701376
0.704212
0.675594
0.673005
0.700967
0.701153
0.691916
0.708437
0.702634
0.316304
0.693093
0.699277
0.689608
0.696549
0.690697
0.662671
0.346716
0.278219
0.698271
0.347974
0.336037
0.699289
0.310159
0.685888
0.692687
0.696864
0.693424
0.312993
0.698972
0.302762
0.325493
0.691843
0.693786
0.691659
0.331878
0.700545
0.690738
0.697314
0.689692
0.316753
0.689591
0.702225
0.697251
0.373641
0.706456
0.330428
0.700171
0.327066
0.346727
0.619779
0.437068
0.701467
0.704766
0.690785
0.319456
0.689407
0.395986
0.307155
0.699715
0.439931
0.348438
0.690669
0.29107
0.520404
0.710333
0.696056
0.699206
0.45274
0.665956
0.709406
0.690809
0.662931
0.702531
0.570123
0.70187
0.697782
0.705637
0.284201
0.331987
0.432961
0.699214
0.311099
0.709736
0.698913
0.676415
0.690858
0.591814
0.708737
0.712812
0.328418
0.698599
0.696737
0.576092
0.697185
0.702092
0.699729
0.688373
0.335713
0.314027
0.694268
0.554301
0.610727
0.698176
0.693086
0.691505
0.702641
0.702132
0.692648
0.69672
0.7016
0.306221
0.287777
0.308426
0.329375
0.563905
0.452635
0.596407
0.701384
0.711184
0.315333
0.693687
0.700556
0.33216
0.369452
0.561575
0.697393
0.318771
0.281967
0.273212
0.559233
0.698945
0.379698
0.322823
0.344308
0.286172
0.341773
0.351364
0.702164
0.692435
0.702798
0.333474
0.696667
0.682559
0.670394
0.334487
0.345092
0.699557
0.558972
0.352959
0.688666
0.349775
0.705875
0.316494
0.699713
0.337365
0.696159
0.701085
0.332238
0.669765
0.325586
0.701067
0.286261
0.686089
0.305068
0.510071
0.323018
0.675133
0.335176
0.628573
0.635335
0.670382
0.695332
0.335981
0.694895
0.688748
0.700859
0.680992
0.697822
0.345079
0.435472
0.332698
0.703381
0.304028
0.701846
0.641491
0.707673
0.701838
0.512675
0.70495
0.307692
0.326081
0.308779
0.509179
0.627051
0.693283
0.330933
0.318774
0.692519
0.357062
0.299526
0.651988
0.367325
0.354324
0.279645
0.701246
0.699772
0.688565
0.321236
0.695333
0.695778
0.289691
0.331883
0.700333
0.689242
0.686954
0.528085
0.368346
0.347838
0.3288
0.70085
0.696943
0.538768
0.70766
0.295165
0.647814
0.335804
0.570517
0.701627
0.345085
0.313941
0.697939
0.646882
0.70141
0.702646
0.702567
0.699296
0.70141
0.327259
0.318706
0.331781
0.338337
0.618404
0.562307
0.700763
0.343212
0.343724
0.464457
0.292996
0.691434
0.696711
0.340746
0.337458
0.693067
0.318549
0.709731
0.703934
0.695158
0.68921
0.628507
0.352445
0.337569
0.696057
0.345139
0.43854
0.38781
0.68835
0.699184
0.318895
0.345143
0.561156
0.334756
0.697539
0.703369
0.34661
0.315702
0.316661
0.691847
0.327661
0.559162
0.711005
0.678298
0.285084
0.564568
0.703091
0.6935
0.327695
0.694344
0.699112
0.29723
0.700225
0.701306
0.327239
0.343139
0.699513
0.332265
0.339197
0.694894
0.341121
0.692557
0.708843
0.703958
0.699554
0.702287
0.694626
0.690656
0.327432
0.379728
0.698236
0.694796
0.428435
0.701095
0.343115
0.69581
0.6994
0.655529
0.706452
0.434837
0.444326
0.693625
0.703247
0.697475
0.700974
0.691257
0.561157
0.700488
0.560729
0.701007
0.699927
0.700688
0.558961
0.690666
0.295449
0.699343
0.321597
0.698448
0.693789
0.706841
0.69681
0.707712
0.315637
0.326424
0.333484
0.328983
0.695173
0.339944
0.328295
0.711528
0.285152
0.708681
0.328807
0.694911
0.693593
0.340799
0.357151
0.333547
0.698723
0.326001
0.693135
0.706667
0.32358
0.699542
0.672255
0.339359
0.321063
0.289211
0.707858
0.344229
0.699001
0.588647
0.329367
0.690793
0.691008
0.70269
0.350063
0.656251
0.301214
0.696531
0.689942
0.695879
0.356893
0.694861
0.698189
0.698153
0.407435
0.698842
0.352466
0.339647
0.699891
0.447557
0.702101
0.421886
0.356124
0.416726
0.698455
0.320245
0.296659
0.323967
0.519236
0.562893
0.699775
0.29435
0.676075
0.691569
0.655256
0.464084
0.331537
0.671199
0.35625
0.340788
0.692173
0.340362
0.351032
0.699724
0.700933
0.33066
0.707394
0.326234
0.561677
0.322783
0.699968
0.599835
0.707366
0.689815
0.313789
0.337741
0.301487
0.692779
0.699816
0.665355
0.571589
0.352058
0.317549
0.690214
0.328101
0.692553
0.356014
0.620807
0.710339
0.335755
0.322933
0.343847
0.34544
0.32156
0.697645
0.695375
0.337203
0.692561
0.703372
0.332467
0.302866
0.700928
0.345791
0.693555
0.394933
0.707667
0.708613
0.692644
0.562094
0.31134
0.702134
0.699878
0.701324
0.341753
0.696939
0.666444
0.334939
0.698925
0.7009
0.702304
0.694685
0.701478
0.699702
0.700826
0.689646
0.691201
0.340899
0.703327
0.345019
0.475286
0.697999
0.301499
0.694156
0.695557
0.316045
0.698146
0.341915
0.296282
0.699762
0.69453
0.700936
0.332762
0.694548
0.680633
0.322907
0.334803
0.700131
0.695436
0.368365
0.320353
0.708354
0.700942
0.349527
0.705215
0.701232
0.700542
0.335287
0.351783
0.297066
0.70861
0.303515
0.694309
0.707078
0.690295
0.678297
0.693273
0.33306
0.700175
0.673683
0.701132
0.673912
0.305796
0.32689
0.286876
0.705046
0.705696
0.386671
0.707803
0.329846
0.700342
0.697493
0.291091
0.698563
0.693863
0.694992
0.333641
0.340551
0.33014
0.70321
0.702147
0.679162
0.521654
0.693354
0.352359
0.695865
0.564962
0.695041
0.332764
0.678907
0.31796
0.696996
0.281432
0.693492
0.699805
0.322588
0.701187
0.478427
0.559041
0.70951
0.559138
0.699812
0.425355
0.69017
0.691368
0.6988
0.693449
0.421381
0.564827
0.312259
0.691484
0.289823
0.341141
0.296533
0.322005
0.355424
0.334839
0.701176
0.350803
0.310559
0.713801
0.702011
0.695072
0.385426
0.708387
0.707832
0.689056
0.300663
0.675289
0.694988
0.327107
0.320711
0.336514
0.696911
0.505201
0.345632
0.670497
0.287315
0.559172
0.473853
0.329313
0.448453
0.705931
0.331189
0.697316
0.297568
0.551927
0.363783
0.700576
0.381114
0.713413
0.565036
0.69474
0.463082
0.346928
0.701025
0.701082
0.319844
0.298856
0.690003
0.343559
0.706838
0.332897
0.670259
0.283949
0.694752
0.319276
0.701179
0.341
0.697857
0.692769
0.702584
0.561193
0.312402
0.310375
0.380624
0.699194
0.711985
0.698372
0.633179
0.317839
0.706016
0.331711
0.699646
0.694631
0.413721
0.329545
0.703551
0.693032
0.303713
0.564588
0.701373
0.70296
0.703858
0.297388
0.696597
0.345817
0.702854
0.300251
0.68543
0.699367
0.700752
0.701044
0.331558
0.701048
0.340139
0.327295
0.697325
0.562307
0.621067
0.693985
0.564494
0.346806
0.706705
0.700208
0.700891
0.299036
0.42463
0.708844
0.339525
0.696923
0.699069
0.693722
0.700457
0.294368
0.458367
0.702495
0.319299
0.699933
0.700673
0.48126
0.699926
0.309745
0.696833
0.706272
0.708593
0.69999
0.339736
0.308106
0.693371
0.694482
0.313749
0.340142
0.317069
0.317579
0.309935
0.293124
0.323776
0.348439
0.693471
0.292183
0.334594
0.709545
0.613486
0.561059
0.393271
0.345011
0.691743
0.468559
0.534218
0.702171
0.372183
0.706039
0.654678
0.67155
0.695454
0.326743
0.699929
0.690116
0.320914
0.338438
0.416693
0.695354
0.672109
0.701639
0.695136
0.695098
0.695873
0.346124
0.698439
0.690791
0.700365
0.347605
0.694656
0.691658
0.34379
0.423157
0.31931
0.29738
0.307386
0.668634
0.710151
0.69661
0.341206
0.360566
0.701126
0.288476
0.708309
0.69142
0.693946
0.708414
0.693081
0.325914
0.299707
0.281044
0.643799
0.300746
0.692118
0.277829
0.695222
0.688369
0.692495
0.327828
0.453727
0.421102
0.692885
0.321184
0.335212
0.699132
0.695109
0.69355
0.69485
0.699843
0.706971
0.355786
0.678996
0.702473
0.56845
0.693523
0.70683
0.705154
0.390707
0.38747
0.700927
0.461653
0.68714
0.342021
0.697233
0.694493
0.376115
0.304715
0.696898
0.50698
0.703127
0.708834
0.345464
0.343522
0.559881
0.457415
0.394805
0.699085
0.700071
0.318784
0.69187
0.56258
0.69612
0.356584
0.668821
0.353947
0.701269
0.701673
0.706775
0.697021
0.554983
0.333339
0.34928
0.695197
0.33672
0.670727
0.325732
0.692749
0.280469
0.710329
0.702545
0.558675
0.356638
0.55965
0.563218
0.335622
0.697147
0.287998
0.701345
0.354663
0.337033
0.261696
0.703809