# vtk DataFile Version 1.0
unstructured grid
ascii
DATASET UNSTRUCTURED_GRID
points 13672 float
0.0796578 -0.059106 0
0.00128732 0.00159165 0
0.00227961 -0.00102548 0
0.0791586 -0.0598787 0
-0.0546216 0.01 0
0.000495206 0.025 0
0.0800549 -0.035 0
0.135172 -0.08 0
-0.0546216 -0.0451168 0
0.000495206 -0.0301168 0
0.0800549 -0.0901168 0
0.135172 -0.135117 0
-0.0546216 -0.0451168 -0.00551168
0.000495206 -0.0301168 -0.00551168
0.0800549 -0.0901168 -0.00551168
0.135172 -0.135117 -0.00551168
0.135172 -0.08 -0.00551168
0.0800549 -0.035 -0.00551168
0.000495206 0.025 -0.00551168
-0.0546216 0.01 -0.00551168
0.00128732 0.00159165 -0.00551168
0.00227961 -0.00102548 -0.00551168
0.0791586 -0.0598787 -0.00551168
0.0796578 -0.059106 -0.00551168
0.00165953 -0.000990923 0
0.00119576 -0.000874076 0
0.000866021 -0.000641801 0
0.000645147 -0.000349912 0
0.00052235 -1.7281e-05 0
0.00049972 0.000348016 0
0.000601632 0.000737716 0
0.000861774 0.0011403 0
0.00157235 0.00183217 0
0.00188647 0.00206725 0
0.00222612 0.00230203 0
0.00258713 0.00254351 0
0.00296826 0.00279524 0
0.00337118 0.00305664 0
0.00379785 0.00332658 0
0.00425045 0.00360349 0
0.00473139 0.00388521 0
0.0052432 0.00416895 0
0.0057881 0.00445204 0
0.00636753 0.00473281 0
0.00698281 0.00500961 0
0.00763526 0.00528058 0
0.00832616 0.00554366 0
0.00905691 0.00579603 0
0.00982918 0.00603333 0
0.0106445 0.00625033 0
0.0115038 0.00644128 0
0.0124073 0.00660297 0
0.0133543 0.00673414 0
0.0143444 0.00683382 0
0.0153769 0.00690031 0
0.0164512 0.00693173 0
0.0175666 0.00692547 0
0.0187219 0.00687822 0
0.0199156 0.00678477 0
0.0211454 0.00663864 0
0.0224084 0.00643275 0
0.0237018 0.00616676 0
0.0250249 0.00584739 0
0.026375 0.00547298 0
0.0277479 0.00503752 0
0.0291386 0.00453545 0
0.0305433 0.0039653 0
0.0319572 0.0033256 0
0.0333681 0.00260019 0
0.034775 0.00179799 0
0.0361793 0.000930615 0
0.0375798 3.12222e-06 0
0.0389689 -0.000988429 0
0.0403357 -0.00205109 0
0.041675 -0.00318283 0
0.0429849 -0.00437751 0
0.0442643 -0.00562904 0
0.0455126 -0.00693089 0
0.0467314 -0.00827518 0
0.0479204 -0.00965638 0
0.0490661 -0.0110799 0
0.0501515 -0.0125519 0
0.0511696 -0.0140695 0
0.0521492 -0.0156071 0
0.0531202 -0.0171411 0
0.0540851 -0.0186663 0
0.0550431 -0.0201798 0
0.0559923 -0.0216793 0
0.0569311 -0.0231626 0
0.0578582 -0.0246273 0
0.0587723 -0.0260715 0
0.0596721 -0.027493 0
0.0605563 -0.02889 0
0.0614241 -0.0302609 0
0.0622742 -0.0316042 0
0.063106 -0.0329183 0
0.0639186 -0.034202 0
0.0647113 -0.0354543 0
0.0654835 -0.0366743 0
0.0662345 -0.0378613 0
0.0669642 -0.0390145 0
0.0676726 -0.0401333 0
0.0683597 -0.0412172 0
0.0690246 -0.0422665 0
0.0696662 -0.0432819 0
0.0702841 -0.0442636 0
0.0708793 -0.0452111 0
0.0714538 -0.0461237 0
0.072009 -0.047001 0
0.0725452 -0.0478434 0
0.0730611 -0.0486524 0
0.073556 -0.0494294 0
0.0740291 -0.0501756 0
0.0744812 -0.0508916 0
0.0749138 -0.0515773 0
0.0753285 -0.0522331 0
0.0757266 -0.0528592 0
0.076109 -0.0534564 0
0.0764753 -0.0540264 0
0.0768243 -0.054571 0
0.0771553 -0.0550919 0
0.0774679 -0.0555901 0
0.0777617 -0.0560669 0
0.0780369 -0.056523 0
0.0782958 -0.0569578 0
0.0785421 -0.0573703 0
0.0787786 -0.0577603 0
0.0790073 -0.0581279 0
0.0792295 -0.058474 0
0.0794462 -0.0587995 0
0.0798803 -0.0594162 0
0.0800272 -0.0596588 0
0.0800357 -0.0598891 0
0.0799275 -0.0600784 0
0.0797205 -0.0601773 0
0.0794593 -0.0601051 0
0.0789155 -0.0596491 0
0.0786707 -0.0593963 0
0.0784111 -0.0591319 0
0.0781372 -0.0588542 0
0.0778566 -0.0585548 0
0.0775715 -0.0582308 0
0.0772803 -0.0578828 0
0.0769832 -0.0575099 0
0.0766822 -0.0571097 0
0.0763801 -0.0566796 0
0.0760759 -0.0562196 0
0.0757623 -0.0557337 0
0.0754359 -0.0552232 0
0.0750951 -0.0546879 0
0.0747379 -0.054128 0
0.0743626 -0.0535435 0
0.0739688 -0.0529338 0
0.0735559 -0.0522981 0
0.0731238 -0.0516357 0
0.0726718 -0.050946 0
0.0721991 -0.0502288 0
0.0717046 -0.049484 0
0.0711872 -0.0487117 0
0.0706461 -0.047912 0
0.0700804 -0.0470849 0
0.0694892 -0.0462308 0
0.0688718 -0.0453499 0
0.0682271 -0.0444431 0
0.0675544 -0.043511 0
0.0668527 -0.0425546 0
0.0661215 -0.0415748 0
0.06536 -0.040573 0
0.0645676 -0.0395504 0
0.0637439 -0.0385087 0
0.0628887 -0.0374493 0
0.062002 -0.0363741 0
0.0610838 -0.0352847 0
0.0601345 -0.0341831 0
0.0591547 -0.033071 0
0.0581456 -0.0319502 0
0.0571083 -0.0308224 0
0.0560444 -0.0296893 0
0.0549562 -0.028552 0
0.053845 -0.0274126 0
0.0527113 -0.0262746 0
0.051554 -0.0251427 0
0.0503724 -0.0240222 0
0.0491675 -0.0229164 0
0.047941 -0.0218282 0
0.0466955 -0.0207597 0
0.0454337 -0.0197126 0
0.0441592 -0.0186878 0
0.0428751 -0.0176863 0
0.0415841 -0.0167097 0
0.0402878 -0.0157609 0
0.0389879 -0.0148428 0
0.0376864 -0.0139575 0
0.0363853 -0.013107 0
0.0350871 -0.0122931 0
0.0337942 -0.0115164 0
0.0325095 -0.0107772 0
0.0312357 -0.0100756 0
0.0299758 -0.00941024 0
0.0287337 -0.00877784 0
0.0275126 -0.00817571 0
0.0263139 -0.00760375 0
0.0251376 -0.00706528 0
0.0239829 -0.0065649 0
0.0228537 -0.00609619 0
0.0217522 -0.00565563 0
0.0206795 -0.00524226 0
0.0196364 -0.00485507 0
0.0186233 -0.00449318 0
0.0176408 -0.00415577 0
0.016689 -0.00384204 0
0.0157682 -0.00355115 0
0.0148783 -0.00328218 0
0.0140192 -0.00303468 0
0.0131906 -0.00280795 0
0.0123925 -0.00260016 0
0.0116246 -0.00241012 0
0.0108864 -0.00223769 0
0.0101774 -0.00208212 0
0.00949701 -0.00194206 0
0.00884483 -0.0018163 0
0.0082202 -0.0017039 0
0.00762247 -0.00160391 0
0.00705097 -0.00151528 0
0.006505 -0.00143697 0
0.0059838 -0.00136806 0
0.00548662 -0.00130772 0
0.00501265 -0.00125519 0
0.00456114 -0.00120954 0
0.00413136 -0.00116914 0
0.00372257 -0.00113251 0
0.00333398 -0.00109853 0
0.00296466 -0.00106798 0
0.00261363 -0.0010431 0
-0.052721 -0.0445996 0
-0.0508204 -0.0440823 0
-0.0489199 -0.0435651 0
-0.0470193 -0.0430478 0
-0.0451187 -0.0425306 0
-0.0432181 -0.0420134 0
-0.0413175 -0.0414961 0
-0.039417 -0.0409789 0
-0.0375164 -0.0404616 0
-0.0356158 -0.0399444 0
-0.0337152 -0.0394271 0
-0.0318146 -0.0389099 0
-0.0299141 -0.0383927 0
-0.0280135 -0.0378754 0
-0.0261129 -0.0373582 0
-0.0242123 -0.0368409 0
-0.0223117 -0.0363237 0
-0.0204112 -0.0358065 0
-0.0185106 -0.0352892 0
-0.01661 -0.034772 0
-0.0147094 -0.0342547 0
-0.0128088 -0.0337375 0
-0.0109083 -0.0332202 0
-0.00900769 -0.032703 0
-0.00710711 -0.0321858 0
-0.00520653 -0.0316685 0
-0.00330595 -0.0311513 0
-0.00140537 -0.030634 0
0.00190689 -0.0299614 0
0.00332271 -0.0298498 0
0.00474133 -0.0297825 0
0.00616136 -0.0297597 0
0.0075814 -0.0297814 0
0.00900007 -0.0298477 0
0.010416 -0.0299583 0
0.0118278 -0.0301127 0
0.0132342 -0.0303103 0
0.0146339 -0.0305504 0
0.0160259 -0.0308322 0
0.0174091 -0.0311546 0
0.0187824 -0.0315166 0
0.020145 -0.031917 0
0.0214961 -0.0323546 0
0.0228351 -0.032828 0
0.0241613 -0.0333361 0
0.0254744 -0.0338774 0
0.0267738 -0.0344507 0
0.0280592 -0.0350545 0
0.0293306 -0.0356877 0
0.0305875 -0.0363488 0
0.0318301 -0.0370367 0
0.0330581 -0.0377501 0
0.0342717 -0.0384879 0
0.0354708 -0.0392489 0
0.0366556 -0.0400321 0
0.0378262 -0.0408363 0
0.0389828 -0.0416607 0
0.0401254 -0.0425042 0
0.0412543 -0.0433659 0
0.0423698 -0.0442451 0
0.043472 -0.0451408 0
0.0445612 -0.0460523 0
0.0456375 -0.0469789 0
0.0467013 -0.0479199 0
0.0477529 -0.0488746 0
0.0487923 -0.0498424 0
0.04982 -0.0508227 0
0.0508362 -0.051815 0
0.051841 -0.0528187 0
0.0528348 -0.0538333 0
0.0538178 -0.0548584 0
0.0547903 -0.0558935 0
0.0557524 -0.0569382 0
0.0567045 -0.0579922 0
0.0576467 -0.0590549 0
0.0585792 -0.0601261 0
0.0595024 -0.0612055 0
0.0604163 -0.0622926 0
0.0613212 -0.0633873 0
0.0622174 -0.0644891 0
0.0631049 -0.0655979 0
0.0639841 -0.0667134 0
0.064855 -0.0678353 0
0.0657179 -0.0689633 0
0.0665729 -0.0700974 0
0.0674202 -0.0712372 0
0.06826 -0.0723826 0
0.0690925 -0.0735333 0
0.0699178 -0.0746892 0
0.070736 -0.0758501 0
0.0715473 -0.0770159 0
0.0723518 -0.0781863 0
0.0731498 -0.0793612 0
0.0739412 -0.0805405 0
0.0747264 -0.081724 0
0.0755053 -0.0829116 0
0.0762781 -0.0841033 0
0.0770449 -0.0852987 0
0.0778059 -0.0864979 0
0.0785611 -0.0877007 0
0.0793108 -0.088907 0
0.0814681 -0.0912706 0
0.0828814 -0.0924245 0
0.0842946 -0.0935783 0
0.0857079 -0.0947322 0
0.0871211 -0.095886 0
0.0885344 -0.0970399 0
0.0899476 -0.0981937 0
0.0913609 -0.0993476 0
0.0927741 -0.100501 0
0.0941874 -0.101655 0
0.0956006 -0.102809 0
0.0970139 -0.103963 0
0.0984272 -0.105117 0
0.0998404 -0.106271 0
0.101254 -0.107424 0
0.102667 -0.108578 0
0.10408 -0.109732 0
0.105493 -0.110886 0
0.106907 -0.11204 0
0.10832 -0.113194 0
0.109733 -0.114348 0
0.111146 -0.115501 0
0.11256 -0.116655 0
0.113973 -0.117809 0
0.115386 -0.118963 0
0.116799 -0.120117 0
0.118213 -0.121271 0
0.119626 -0.122424 0
0.121039 -0.123578 0
0.122452 -0.124732 0
0.123866 -0.125886 0
0.125279 -0.12704 0
0.126692 -0.128194 0
0.128105 -0.129348 0
0.129519 -0.130501 0
0.130932 -0.131655 0
0.132345 -0.132809 0
0.133758 -0.133963 0
0.135172 -0.133216 0
0.135172 -0.131316 0
0.135172 -0.129415 0
0.135172 -0.127514 0
0.135172 -0.125614 0
0.135172 -0.123713 0
0.135172 -0.121813 0
0.135172 -0.119912 0
0.135172 -0.118012 0
0.135172 -0.116111 0
0.135172 -0.11421 0
0.135172 -0.11231 0
0.135172 -0.110409 0
0.135172 -0.108509 0
0.135172 -0.106608 0
0.135172 -0.104708 0
0.135172 -0.102807 0
0.135172 -0.100906 0
0.135172 -0.0990058 0
0.135172 -0.0971052 0
0.135172 -0.0952046 0
0.135172 -0.0933041 0
0.135172 -0.0914035 0
0.135172 -0.0895029 0
0.135172 -0.0876023 0
0.135172 -0.0857017 0
0.135172 -0.0838012 0
0.135172 -0.0819006 0
0.133758 -0.0788462 0
0.132345 -0.0776923 0
0.130932 -0.0765385 0
0.129519 -0.0753846 0
0.128105 -0.0742308 0
0.126692 -0.0730769 0
0.125279 -0.0719231 0
0.123866 -0.0707692 0
0.122452 -0.0696154 0
0.121039 -0.0684615 0
0.119626 -0.0673077 0
0.118213 -0.0661538 0
0.116799 -0.065 0
0.115386 -0.0638462 0
0.113973 -0.0626923 0
0.11256 -0.0615385 0
0.111146 -0.0603846 0
0.109733 -0.0592308 0
0.10832 -0.0580769 0
0.106907 -0.0569231 0
0.105493 -0.0557692 0
0.10408 -0.0546154 0
0.102667 -0.0534615 0
0.101254 -0.0523077 0
0.0998404 -0.0511538 0
0.0984272 -0.05 0
0.0970139 -0.0488462 0
0.0956006 -0.0476923 0
[...]
CELL_DATA 13116
SCALARS rho float
LOOKUP_TABLE default
0.628948
0.701897
0.322136
0.699658
0.699879
0.69426
0.313207
0.701165
0.581369
0.700309
0.320268
0.296081
0.699868
0.294762
0.298239
0.694248
0.620301
0.70005
0.690997
0.3329
0.622853
0.308888
0.302009
0.700432
0.637138
0.700002
0.700359
0.317223
0.62372
0.679039
0.558112
0.285554
0.595545
0.442
0.313064
0.627465
0.703007
0.700678
0.687342
0.699328
0.690611
0.700948
0.467728
0.324331
0.697887
0.691444
0.703302
0.69404
0.299413
0.57013
0.699956
0.463938
0.303345
0.613887
0.596011
0.6214
0.323425
0.700706
0.574871
0.288562
0.298635
0.700025
0.704016
0.684203
0.563132
0.31688
0.696174
0.701309
0.696473
0.573035
0.300191
0.609074
0.313096
0.316685
0.560208
0.324621
0.709266
0.699308
0.318049
0.700705
0.704914
0.700686
0.700174
0.697231
0.700544
0.428315
0.31501
0.694296
0.700889
0.338187
0.291297
0.70094
0.700195
0.700776
0.687899
0.639989
0.639776
0.562536
0.559967
0.622575
0.697892
0.691745
0.690526
0.409838
0.702266
0.287674
0.376106
0.527426
0.313025
0.634754
0.571487
0.700586
0.636832
0.702671
0.700465
0.697015
0.310551
0.37143
0.69944
0.697658
0.70024
0.316192
0.696725
0.291061
0.701149
0.415914
0.313974
0.55632
0.315882
0.568922
0.699462
0.703723
0.531531
0.303196
0.506601
0.664021
0.559923
0.698366
0.696683
0.697804
0.699325
0.703133
0.558694
0.701147
0.704359
0.280512
0.314339
0.700418
0.700257
0.699958
0.562465
0.694795
0.693207
0.32599
0.700505
0.700156
0.301635
0.701541
0.562235
0.693422
0.70041
0.319585
0.700477
0.3054
0.31842
0.699705
0.70094
0.700054
0.312934
0.450566
0.402418
0.559865
0.296051
0.561144
0.696887
0.299979
0.305738
0.311704
0.70049
0.689878
0.336316
0.394393
0.598144
0.701813
0.689955
0.576518
0.332015
0.697974
0.700196
0.425479
0.694087
0.700377
0.589127
0.296809
0.700065
0.690351
0.700686
0.69846
0.701116
0.3762
0.411269
0.641096
0.554921
0.31064
0.700542
0.69394
0.473358
0.646521
0.277699
0.327609
0.325867
0.693206
0.30194
0.342502
0.333365
0.326056
0.362457
0.685437
0.701136
0.414605
0.323635
0.695935
0.565806
0.335938
0.561713
0.700109
0.704271
0.317278
0.696627
0.397221
0.701901
0.286427
0.588335
0.596036
0.56366
0.699812
0.622404
0.307461
0.412499
0.691458
0.560277
0.689857
0.560447
0.633091
0.701283
0.305322
0.699041
0.700369
0.560526
0.319665
0.302889
0.692803
0.699325
0.562237
0.700669
0.621159
0.701943
0.320879
0.317615
0.377299
0.273152
0.701439
0.700645
0.709154
0.317722
0.699375
0.326019
0.423587
0.702527
0.325702
0.700477
0.700191
0.559951
0.700708
0.303765
0.559811
0.701719
0.560494
0.698294
0.320729
0.32132
0.299038
0.662219
0.315827
0.314297
0.359738
0.333784
0.702172
0.296198
0.700313
0.699591
0.331818
0.338057
0.326217
0.404552
0.319804
0.693816
0.675907
0.701254
0.326209
0.69232
0.593726
0.313538
0.289156
0.693028
0.699188
0.6978
0.331782
0.690954
0.41865
0.704128
0.700605
0.699663
0.700612
0.29785
0.69613
0.285656
0.696911
0.699768
0.688065
0.333481
0.356112
0.700271
0.323102
0.702643
0.700013
0.358625
0.702521
0.700219
0.325707
0.699716
0.700188
0.248435
0.699552
0.421657
0.579893
0.702371
0.434203
0.702201
0.318841
0.70049
0.36376
0.663743
0.697003
0.700762
0.315769
0.346839
0.700256
0.324676
0.700361
0.700193
0.392515
0.559738
0.329868
0.315625
0.700221
0.566672
0.702513
0.320111
0.303454
0.699023
0.699619
0.315871
0.699451
0.307828
0.286986
0.697535
0.702004
0.534175
0.354313
0.698628
0.558622
0.693736
0.699563
0.70078
0.566004
0.337037
0.279026
0.337071
0.69323
0.336947
0.597731
0.360766
0.293139
0.346083
0.544585
0.13416
0.325582
0.700393
0.279381
0.700414
0.625615
0.691367
0.687342
0.699216
0.316139
0.323067
0.380741
0.346121
0.700388
0.634403
0.691036
0.626158
0.706797
0.65918
0.700692
0.685707
0.677407
0.700854
0.700958
0.693537
0.380556
0.475668
0.6254
0.309817
0.67379
0.622351
0.304982
0.696725
0.560088
0.298703
0.33202
0.333284
0.33237
0.648717
0.308697
0.297214
0.694406
0.321148
0.59871
0.340583
0.696568
0.705898
0.320119
0.303747
0.700373
0.406664
0.346297
0.333003
0.34448
0.311869
0.324654
0.333655
0.316142
0.427109
0.325763
0.690766
0.323674
0.700315
0.362026
0.290895
0.523193
0.274251
0.336289
0.278176
0.698796
0.41298
0.660984
0.540549
0.320865
0.64972
0.700851
0.424904
0.702735
0.664704
0.666299
0.327819
0.562413
0.371975
0.700597
0.558891
0.305637
0.299899
0.700513
0.348254
0.430084
0.698944
0.373298
0.700674
0.703163
0.338379
0.306291
0.2995
0.5568
0.289883
0.276974
0.298184
0.283822
0.699791
0.699882
0.409308
0.625299
0.515281
0.700103
0.354146
0.315465
0.584438
0.306401
0.702919
0.334026
0.352948
0.529072
0.699376
0.700896
0.574161
0.357095
0.302815
0.572046
0.700951
0.616304
0.569287
0.702685
0.701562
0.327155
0.706686
0.59221
0.690259
0.339955
0.31994
0.703126
0.700709
0.685496
0.700158
0.701323
0.700095
0.700437
0.687951
0.691338
0.33509
0.700484
0.364776
0.283157
0.344997
0.699716
0.693723
0.337092
0.700574
0.638795
0.334976
0.662694
0.699078
0.701079
0.316985
0.316691
0.699464
0.350597
0.353977
0.271749
0.328257
0.705987
0.26175
0.69937
0.322142
0.70354
0.699688
0.695936
0.699699
0.350145
0.339389
0.694873
0.702323
0.704457
0.699785
0.700423
0.511134
0.327029
0.308419
0.690818
0.578001
0.335094
0.418832
0.29238
0.701256
0.697888
0.338668
0.310301
0.700662
0.445802
0.700504
0.675862
0.315583
0.396614
0.704451
0.560606
0.306894
0.700869
0.70089
0.69359
0.322295
0.560055
0.321725
0.564339
0.688765
0.356105
0.360086
0.31424
0.563224
0.314408
0.314879
0.37449
0.682281
0.701503
0.315616
0.313797
0.332561
0.672559
0.313909
0.689879
0.284436
0.611422
0.700131
0.364132
0.304923
0.303094
0.514424
0.309769
0.700628
0.330909
0.312641
0.694967
0.300003
0.693398
0.702741
0.56465
0.343145
0.702197
0.700363
0.700651
0.691378
0.701597
0.697349
0.28442
0.58969
0.419663
0.699453
0.321242
0.701113
0.567827
0.310823
0.554599
0.700538
0.320374
0.681962
0.290773
0.302165
0.69385
0.698717
0.2922
0.281374
0.316964
0.282363
0.70152
0.700375
0.322049
0.336885
0.70046
0.69824
0.613948
0.700378
0.697156
0.320409
0.700743
0.408711
0.699791
0.377139
0.631122
0.499699
0.695725
0.70308
0.593207
0.350655
0.314823
0.699548
0.620698
0.610144
0.700375
0.273077
0.702893
0.700532
0.382751
0.469715
0.700455
0.357716
0.558535
0.692362
0.353096
0.698722
0.68599
0.319676
0.70159
0.298561
0.70125
0.326523
0.693189
0.70435
0.313545
0.686604
0.700435
0.699749
0.641048
0.706462
0.594415
0.3346
0.414427
0.288397
0.314217
0.559587
0.564801
0.697312
0.700281
0.337076
0.331358
0.70396
0.700126
0.700321
0.700388
0.32852
0.700847
0.700342
0.333297
0.285084
0.699468
0.692877
0.700857
0.278081
0.600189
0.320215
0.701848
0.70274
0.60268
0.698009
0.33195
0.709295
0.700283
0.700116
0.699366
0.690165
0.417877
0.700873
0.327927
0.700193
0.700331
0.445533
0.704379
0.63306
0.699582
0.420516
0.391913
0.597706
0.678518
0.352425
0.355877
0.32654
0.32618
0.707773
0.703643
0.630726
0.336221
0.324087
0.696384
0.702237
0.252988
0.334718
0.457873
0.70659
0.698773
0.699706
0.700721
0.328422
0.353574
0.559734
0.291088
0.342137
0.329839
0.690488
0.319814
0.346746
0.616933
0.696847
0.700484
0.691682
0.697519
0.311746
0.299857
0.327775
0.550028
0.426998
0.287823
0.701659
0.700914
0.701632
0.690876
0.281607
0.347924
0.70018
0.348735
0.690085
0.704294
0.561496
0.291893
0.346068
0.701295
0.556479
0.646496
0.251412
0.700253
0.692215
0.614563
0.69983
0.700636
0.559752
0.702805
0.330115
0.697506
0.55974
0.693128
0.701654
0.559531
0.700748
0.562744
0.697956
0.312111
0.310764
0.348997
0.558
0.567816
0.349031
0.704453
0.700546
0.295408
0.684739
0.320638
0.693378
0.528572
0.305174
0.700106
0.700344
0.336417
0.557817
0.559075
0.315452
0.70096
0.312218
0.281696
0.656564
0.633512
0.523315
0.69063
0.326542
0.700502
0.308223
0.290224
0.693342
0.333565
0.641928
0.292249
0.687062
0.63148
0.561003
0.700805
0.288621
0.31206
0.695173
0.475993
0.700369
0.449261
0.634524
0.695549
0.700089
0.487459
0.632163
0.700344
0.70068
0.696835
0.368293
0.357338
0.553808
0.700184
0.700837
0.365903
0.690455
0.649025
0.379722
0.291529
0.68974
0.706088
0.561614
0.561986
0.697594
0.702215
0.690757
0.705613
0.290773
0.682689
0.440341
0.699147
0.69319
0.329208
0.701456
0.699629
0.314129
0.298562
0.325287
0.559787
0.319758
0.65414
0.700996
0.682631
0.331062
0.700873
0.306311
0.600951
0.675954
0.603095
0.700709
0.665902
0.645686
0.705589
0.582211
0.696144
0.326811
0.690092
0.695707
0.457167
0.563397
0.702743
0.299741
0.282798
0.316916
0.69963
0.355334
0.560745
0.328642
0.70111
0.299743
0.501191
0.288813
0.700665
0.700145
0.61779
0.310522
0.647377
0.688306
0.330557
0.614307
0.699866
0.287066
0.622894
0.559734
0.700132
0.690088
0.304383
0.516873
0.70021
0.69133
0.699869
0.348481
0.387418
0.700413
0.559907
0.560287
0.559998
0.613389
0.703056
0.609326
0.69876
0.347878
0.308241
0.560227
0.699818
0.687759
0.316093
0.690066
0.627093
0.655985
0.323943
0.414085
0.699408
0.699735
0.58594
0.344148
0.690853
0.563673
0.314128
0.636225
0.700763
0.314325
0.291497
0.289962
0.69891
0.314014
0.335903
0.699694
0.45628
0.700719
0.689313
0.312077
0.326427
0.699728
0.313794
0.309612
0.556963
0.303056
0.357001
0.626418
0.701637
0.702615
0.324543
0.321992
0.32001
0.702734
0.288515
0.701924
0.304682
0.704388
0.700406
0.700768
0.702928
0.711156
0.702864
0.698329
0.699685
0.700522
0.271852
0.327181
0.710917
0.691587
0.526913
0.700347
0.593499
0.687561
0.690086
0.319767
0.697321
0.700015
0.695903
0.319501
0.709237
0.320124
0.698334
0.515526
0.700419
0.691212
0.307032
0.700649
0.332279
0.435859
0.703505
0.329038
0.70269
0.559982
0.701458
0.331499
0.694409
0.326521
0.292516
0.293279
0.333783
0.685678
0.293174
0.700482
0.651051
0.346296
0.297156
0.504649
0.596587
0.668867
0.704228
0.342117
0.319883
0.316106
0.289051
0.305571
0.671166
0.700797
0.317878
0.669158
0.700934
0.291141
0.699873
0.701115
0.666593
0.323281
0.5614
0.707257
0.700773
0.699579
0.291838
0.701525
0.700521
0.708025
0.688516
0.688979
0.318303
0.294159
0.693685
0.548579
0.350206
0.693346
0.296264
0.581435
0.673731
0.701306
0.7011
0.290652
0.700499
0.375382
0.320183
0.701707
0.699924
0.700383
0.698992
0.701092
0.292874
0.69988
0.286936
0.525331
0.699642
0.559744
0.700247
0.320338
0.309871
0.700313
0.32842
0.699496
0.67023
0.385145
0.333123
0.69789
0.292417
0.690575
0.699674
0.705183
0.292676
0.31105
0.551978
0.579393
0.661933
0.481024
0.694975
0.704474
0.700132
0.559586
0.70329
0.307923
0.330782
0.699307
0.689202
0.696476
0.445579
0.312426
0.708092
0.294772
0.697573
0.636362
0.331773
0.700472
0.32373
0.701121
0.321472
0.700224
0.300488
0.69998
0.689854
0.293669
0.701128
0.678321
0.28929
0.621277
0.692225
0.594573
0.269919
0.362175
0.43632
0.700403
0.699853
0.3325
0.596596
0.701846
0.695045
0.333964
0.664862
0.702139
0.440286
0.693642
0.696415
0.329165
0.700283
0.559343
0.322968
0.641305
0.332935
0.696391
0.328455
0.283521
0.700639
0.335719
0.333063
0.290123
0.69565
0.702696
0.386361
0.690998
0.359967
0.712573
0.327535
0.702369
0.362437
0.695703
0.695318
0.703874
0.623191
0.56043
0.689808
0.665032
0.319092
0.661206
0.7028
0.575619
0.704066
0.513404
0.402465
0.699866
0.333923
0.598168
0.321231
0.690867
0.274008
0.296452
0.700435
0.697732
0.338899
0.698823
0.701047
0.5596
0.700393
0.564313
0.330848
0.700055
0.34094
0.303574
0.700948
0.700648
0.700942
0.700321
0.287328
0.327728
0.318845
0.700411
0.644598
0.36043
0.701945
0.314712
0.329296
0.324349
0.700719
0.376248
0.699951
0.700479
0.658859
0.698921
0.700829
0.621193
0.706677
0.42524
0.291453
0.339418
0.563942
0.561872
0.314109
0.671592
0.698105
0.705499
0.304459
0.424914
0.704765
0.29958
0.703535
0.677278
0.341751
0.688903
0.70778
0.351807
0.703239
0.308654
0.697173
0.700635
0.710676
0.292064
0.472136
0.702521
0.338437
0.428939
0.698346
0.331864
0.689649
0.696525
0.700481
0.700999
0.3423
0.558911
0.701725
0.691132
0.382128
0.69944
0.307424
0.26321
0.700675
0.698727
0.65004
0.252335
0.692401
0.658745
0.560147
0.318632
0.305692
0.348386
0.698897
0.315397
0.301816
0.320236
0.674763
0.305769
0.329831
0.428658
0.701904
0.345885
0.611783
0.684638
0.698853
0.331413
0.699555
0.685237
0.662655
0.416588
0.686507
0.314256
0.333316
0.694085
0.338727
0.674776
0.702063
0.560543
0.344101
0.35761
0.321147
0.570298
0.560704
0.261317
0.700025
0.695287
0.700692
0.32823
0.286252
0.366706
0.700823
0.339258
0.559719
0.627277
0.68802
0.700647
0.321078
0.681023
0.285677
0.680433
0.671947
0.700087
0.664029
0.580386
0.689966
0.698114
0.699288
0.332464
0.36081
0.322641
0.700558
0.580745
0.559429
0.344013
0.375248
0.700752
0.699936
0.579352
0.339315
0.699161
0.56834
0.573487
0.700608
0.309859
0.33951
0.324856
0.698655
0.649372
0.686299
0.69998
0.36484
0.701538
0.682482
0.65167
0.647598
0.701232
0.700041
0.692068
0.700926
0.700397
0.305598
0.698434
0.699094
0.69041
0.699096
0.699107
0.661355
0.337893
0.290533
0.693616
0.346932
0.343253
0.699462
0.305425
0.660342
0.696227
0.701868
0.695047
0.301826
0.699534
0.29362
0.308672
0.69266
0.703786
0.69118
0.331122
0.699655
0.690881
0.693276
0.697555
0.3082
0.689501
0.700286
0.712041
0.376519
0.700527
0.322219
0.699147
0.327551
0.339949
0.621099
0.431755
0.700093
0.700632
0.689962
0.319948
0.689234
0.389146
0.301906
0.701127
0.505946
0.34201
0.690606
0.295666
0.531731
0.698148
0.704758
0.701122
0.509244
0.611545
0.689981
0.689884
0.661134
0.700381
0.550483
0.701601
0.699647
0.682684
0.279295
0.318476
0.432367
0.698974
0.300495
0.691819
0.699011
0.640834
0.689814
0.605973
0.703093
0.705734
0.32237
0.698636
0.700445
0.588861
0.701209
0.700123
0.700738
0.692664
0.328697
0.310449
0.704883
0.584524
0.616113
0.698061
0.698188
0.690902
0.700768
0.700741
0.659568
0.70406
0.699957
0.297968
0.305735
0.264991
0.323281
0.560449
0.412283
0.607012
0.700504
0.70452
0.304847
0.694024
0.699615
0.331119
0.356429
0.560844
0.698611
0.310235
0.280182
0.27404
0.559555
0.700384
0.379394
0.308369
0.340961
0.291597
0.352494
0.351796
0.701896
0.694783
0.70492
0.330865
0.70172
0.657491
0.631412
0.338628
0.330009
0.701041
0.56138
0.343017
0.696214
0.351006
0.700433
0.305797
0.699138
0.33491
0.701552
0.699485
0.330836
0.575688
0.326557
0.699975
0.299549
0.662186
0.295847
0.564619
0.315432
0.658401
0.330957
0.59301
0.602184
0.630619
0.71193
0.340908
0.702389
0.686165
0.699542
0.65418
0.711494
0.331699
0.421087
0.318038
0.70027
0.323853
0.699643
0.56811
0.700622
0.700114
0.51888
0.700834
0.302616
0.307883
0.301628
0.560156
0.626777
0.697273
0.327219
0.309321
0.693444
0.389564
0.291763
0.64754
0.36204
0.345051
0.292674
0.70089
0.676869
0.66494
0.308112
0.702969
0.698518
0.291241
0.360051
0.700254
0.69727
0.678833
0.534197
0.408407
0.382411
0.32692
0.701509
0.690014
0.578982
0.701938
0.282813
0.614432
0.322438
0.560565
0.699447
0.33509
0.32456
0.693941
0.643573
0.699608
0.70041
0.70052
0.699423
0.699764
0.326398
0.309857
0.323224
0.321746
0.625176
0.558002
0.678343
0.325848
0.341902
0.448087
0.29154
0.690946
0.704846
0.33254
0.338557
0.696094
0.308615
0.690116
0.700499
0.702625
0.689557
0.629969
0.353786
0.332983
0.702799
0.336546
0.423363
0.383029
0.690814
0.697886
0.337066
0.342156
0.559629
0.330935
0.697147
0.700266
0.347751
0.314827
0.299191
0.696312
0.307907
0.559922
0.701326
0.645
0.290665
0.545876
0.699354
0.70072
0.314551
0.701935
0.696287
0.287009
0.699528
0.70084
0.319942
0.34116
0.701238
0.328104
0.321957
0.702115
0.370412
0.69156
0.703051
0.700106
0.699421
0.699886
0.696134
0.68919
0.317565
0.410559
0.700236
0.706145
0.46432
0.699983
0.34569
0.697673
0.701064
0.605764
0.684261
0.420548
0.435257
0.694166
0.699935
0.69949
0.699569
0.693343
0.560041
0.700566
0.559632
0.701664
0.701129
0.701136
0.561689
0.689592
0.287219
0.700788
0.319128
0.697832
0.698239
0.70077
0.702873
0.701098
0.314832
0.323766
0.330902
0.316035
0.702787
0.334794
0.32309
0.703774
0.279861
0.701005
0.326525
0.702176
0.7013
0.335839
0.390046
0.335376
0.698879
0.3159
0.695308
0.700885
0.320951
0.70107
0.578901
0.349652
0.315954
0.292933
0.701598
0.343696
0.698675
0.601581
0.330888
0.698945
0.690779
0.700503
0.35094
0.620075
0.292981
0.701103
0.693253
0.697127
0.352384
0.706867
0.698145
0.70096
0.3866
0.698786
0.353866
0.32712
0.699648
0.407214
0.700386
0.409193
0.349524
0.432622
0.701935
0.315319
0.286776
0.32573
0.538855
0.560382
0.700497
0.256935
0.65214
0.694179
0.568415
0.449826
0.327553
0.581137
0.356652
0.325558
0.694935
0.328142
0.345078
0.699642
0.699787
0.330316
0.700218
0.325509
0.560275
0.317929
0.701059
0.579028
0.700858
0.68693
0.309481
0.324404
0.292903
0.694189
0.70133
0.608548
0.578866
0.38425
0.339316
0.690027
0.318532
0.69201
0.392093
0.587504
0.702093
0.333086
0.322789
0.329759
0.341566
0.32125
0.693744
0.703049
0.334951
0.699314
0.67661
0.334528
0.296069
0.699839
0.339
0.701471
0.419548
0.700888
0.688468
0.699179
0.561165
0.307097
0.700697
0.698152
0.700781
0.337053
0.700661
0.619909
0.340585
0.698955
0.706062
0.702116
0.7024
0.699823
0.699765
0.700471
0.691871
0.69099
0.336797
0.700314
0.330473
0.462308
0.698512
0.293074
0.701383
0.701891
0.305482
0.701645
0.337845
0.291566
0.700763
0.699844
0.699771
0.325075
0.702315
0.647922
0.318293
0.332503
0.700901
0.698237
0.380137
0.322376
0.701093
0.699889
0.351027
0.681025
0.699491
0.677764
0.328997
0.353196
0.289772
0.688443
0.301726
0.701817
0.700693
0.690013
0.662188
0.70116
0.325779
0.700946
0.641566
0.699428
0.664813
0.295998
0.316149
0.282875
0.700288
0.700433
0.415893
0.686897
0.322748
0.70596
0.697444
0.271067
0.695431
0.701244
0.662999
0.331334
0.320982
0.324646
0.699691
0.700395
0.645567
0.534199
0.700767
0.342244
0.668858
0.559938
0.706756
0.330694
0.651233
0.309708
0.702252
0.286002
0.695219
0.700858
0.308744
0.699521
0.46806
0.560856
0.687935
0.559673
0.699589
0.409573
0.689992
0.690714
0.697433
0.696418
0.494128
0.55994
0.285769
0.69082
0.277109
0.338239
0.294366
0.32137
0.355167
0.332798
0.699629
0.385893
0.302759
0.69805
0.69946
0.70278
0.382549
0.701786
0.702308
0.688525
0.29681
0.667219
0.696315
0.32189
0.322465
0.324038
0.66694
0.529769
0.346179
0.667833
0.283592
0.563853
0.525178
0.309772
0.49017
0.683848
0.328543
0.697742
0.285234
0.564438
0.369521
0.701245
0.367375
0.699878
0.55997
0.698854
0.448427
0.331628
0.701642
0.699948
0.321025
0.292741
0.695568
0.341181
0.700588
0.330252
0.577222
0.275009
0.696126
0.311287
0.699785
0.338331
0.69765
0.700597
0.699772
0.561792
0.289483
0.299953
0.379828
0.700545
0.70467
0.702092
0.631182
0.306128
0.700899
0.328691
0.70127
0.694717
0.403206
0.332293
0.700403
0.693549
0.294633
0.555198
0.701684
0.700429
0.700076
0.284368
0.670888
0.333478
0.700465
0.307189
0.671738
0.700989
0.701598
0.699759
0.333225
0.700034
0.334456
0.321947
0.697
0.561852
0.592233
0.701928
0.560188
0.338336
0.70028
0.701092
0.700722
0.292091
0.390554
0.702367
0.333936
0.698214
0.699333
0.701003
0.700984
0.313303
0.43874
0.680145
0.306093
0.701042
0.699615
0.528309
0.700901
0.321857
0.703492
0.700294
0.700601
0.700883
0.319597
0.297776
0.698884
0.702178
0.301316
0.345442
0.311441
0.306465
0.301154
0.291909
0.319403
0.348586
0.700568
0.279193
0.330123
0.701121
0.592621
0.559557
0.366205
0.343264
0.695746
0.458987
0.549653
0.70052
0.363436
0.684965
0.618471
0.634655
0.701757
0.318122
0.700426
0.680684
0.317918
0.326236
0.40553
0.701686
0.635391
0.699915
0.69437
0.705948
0.699211
0.360512
0.700021
0.685986
0.701195
0.338442
0.69627
0.683537
0.357354
0.404098
0.299955
0.289678
0.295092
0.628404
0.698984
0.712419
0.326321
0.394212
0.699481
0.294558
0.701148
0.690852
0.701155
0.700412
0.69988
0.319045
0.29133
0.279369
0.621344
0.301224
0.693635
0.276324
0.694901
0.695833
0.698339
0.321542
0.430955
0.403956
0.700909
0.322917
0.32297
0.699596
0.702128
0.688258
0.694716
0.700825
0.700601
0.356472
0.650599
0.700168
0.543385
0.701531
0.70081
0.700666
0.447595
0.41617
0.700699
0.52183
0.667191
0.331968
0.704111
0.700543
0.377566
0.302687
0.701444
0.553002
0.700066
0.701111
0.345539
0.336187
0.559958
0.441223
0.388598
0.699901
0.70076
0.313847
0.700882
0.561795
0.702814
0.357039
0.628172
0.355015
0.699927
0.69938
0.700661
0.71205
0.562344
0.333989
0.357583
0.707559
0.331281
0.632178
0.326667
0.699554
0.271273
0.688473
0.700267
0.564577
0.352632
0.55973
0.560484
0.321673
0.70346
0.293504
0.700861
0.346688
0.333684
0.265825
0.707549
0.700816
0.359572
0.327955
0.700342
0.699712
0.45279