# vtk DataFile Version 1.0
unstructured grid
ascii
DATASET UNSTRUCTURED_GRID
points 13672 float
0.0796578 -0.059106 0
0.00128732 0.00159165 0
0.00227961 -0.00102548 0
0.0791586 -0.0598787 0
-0.0546216 0.01 0
0.000495206 0.025 0
0.0800549 -0.035 0
0.135172 -0.08 0
-0.0546216 -0.0451168 0
0.000495206 -0.0301168 0
0.0800549 -0.0901168 0
0.135172 -0.135117 0
-0.0546216 -0.0451168 -0.00551168
0.000495206 -0.0301168 -0.00551168
0.0800549 -0.0901168 -0.00551168
0.135172 -0.135117 -0.00551168
0.135172 -0.08 -0.00551168
0.0800549 -0.035 -0.00551168
0.000495206 0.025 -0.00551168
-0.0546216 0.01 -0.00551168
0.00128732 0.00159165 -0.00551168
0.00227961 -0.00102548 -0.00551168
0.0791586 -0.0598787 -0.00551168
0.0796578 -0.059106 -0.00551168
0.00165953 -0.000990923 0
0.00119576 -0.000874076 0
0.000866021 -0.000641801 0
0.000645147 -0.000349912 0
0.00052235 -1.7281e-05 0
0.00049972 0.000348016 0
0.000601632 0.000737716 0
0.000861774 0.0011403 0
0.00157235 0.00183217 0
0.00188647 0.00206725 0
0.00222612 0.00230203 0
0.00258713 0.00254351 0
0.00296826 0.00279524 0
0.00337118 0.00305664 0
0.00379785 0.00332658 0
0.00425045 0.00360349 0
0.00473139 0.00388521 0
0.0052432 0.00416895 0
0.0057881 0.00445204 0
0.00636753 0.00473281 0
0.00698281 0.00500961 0
0.00763526 0.00528058 0
0.00832616 0.00554366 0
0.00905691 0.00579603 0
0.00982918 0.00603333 0
0.0106445 0.00625033 0
0.0115038 0.00644128 0
0.0124073 0.00660297 0
0.0133543 0.00673414 0
0.0143444 0.00683382 0
0.0153769 0.00690031 0
0.0164512 0.00693173 0
0.0175666 0.00692547 0
0.0187219 0.00687822 0
0.0199156 0.00678477 0
0.0211454 0.00663864 0
0.0224084 0.00643275 0
0.0237018 0.00616676 0
0.0250249 0.00584739 0
0.026375 0.00547298 0
0.0277479 0.00503752 0
0.0291386 0.00453545 0
0.0305433 0.0039653 0
0.0319572 0.0033256 0
0.0333681 0.00260019 0
0.034775 0.00179799 0
0.0361793 0.000930615 0
0.0375798 3.12222e-06 0
0.0389689 -0.000988429 0
0.0403357 -0.00205109 0
0.041675 -0.00318283 0
0.0429849 -0.00437751 0
0.0442643 -0.00562904 0
0.0455126 -0.00693089 0
0.0467314 -0.00827518 0
0.0479204 -0.00965638 0
0.0490661 -0.0110799 0
0.0501515 -0.0125519 0
0.0511696 -0.0140695 0
0.0521492 -0.0156071 0
0.0531202 -0.0171411 0
0.0540851 -0.0186663 0
0.0550431 -0.0201798 0
0.0559923 -0.0216793 0
0.0569311 -0.0231626 0
0.0578582 -0.0246273 0
0.0587723 -0.0260715 0
0.0596721 -0.027493 0
0.0605563 -0.02889 0
0.0614241 -0.0302609 0
0.0622742 -0.0316042 0
0.063106 -0.0329183 0
0.0639186 -0.034202 0
0.0647113 -0.0354543 0
0.0654835 -0.0366743 0
0.0662345 -0.0378613 0
0.0669642 -0.0390145 0
0.0676726 -0.0401333 0
0.0683597 -0.0412172 0
0.0690246 -0.0422665 0
0.0696662 -0.0432819 0
0.0702841 -0.0442636 0
0.0708793 -0.0452111 0
0.0714538 -0.0461237 0
0.072009 -0.047001 0
0.0725452 -0.0478434 0
0.0730611 -0.0486524 0
0.073556 -0.0494294 0
0.0740291 -0.0501756 0
0.0744812 -0.0508916 0
0.0749138 -0.0515773 0
0.0753285 -0.0522331 0
0.0757266 -0.0528592 0
0.076109 -0.0534564 0
0.0764753 -0.0540264 0
0.0768243 -0.054571 0
0.0771553 -0.0550919 0
0.0774679 -0.0555901 0
0.0777617 -0.0560669 0
0.0780369 -0.056523 0
0.0782958 -0.0569578 0
0.0785421 -0.0573703 0
0.0787786 -0.0577603 0
0.0790073 -0.0581279 0
0.0792295 -0.058474 0
0.0794462 -0.0587995 0
0.0798803 -0.0594162 0
0.0800272 -0.0596588 0
0.0800357 -0.0598891 0
0.0799275 -0.0600784 0
0.0797205 -0.0601773 0
0.0794593 -0.0601051 0
0.0789155 -0.0596491 0
0.0786707 -0.0593963 0
0.0784111 -0.0591319 0
0.0781372 -0.0588542 0
0.0778566 -0.0585548 0
0.0775715 -0.0582308 0
0.0772803 -0.0578828 0
0.0769832 -0.0575099 0
0.0766822 -0.0571097 0
0.0763801 -0.0566796 0
0.0760759 -0.0562196 0
0.0757623 -0.0557337 0
0.0754359 -0.0552232 0
0.0750951 -0.0546879 0
0.0747379 -0.054128 0
0.0743626 -0.0535435 0
0.0739688 -0.0529338 0
0.0735559 -0.0522981 0
0.0731238 -0.0516357 0
0.0726718 -0.050946 0
0.0721991 -0.0502288 0
0.0717046 -0.049484 0
0.0711872 -0.0487117 0
0.0706461 -0.047912 0
0.0700804 -0.0470849 0
0.0694892 -0.0462308 0
0.0688718 -0.0453499 0
0.0682271 -0.0444431 0
0.0675544 -0.043511 0
0.0668527 -0.0425546 0
0.0661215 -0.0415748 0
0.06536 -0.040573 0
0.0645676 -0.0395504 0
0.0637439 -0.0385087 0
0.0628887 -0.0374493 0
0.062002 -0.0363741 0
0.0610838 -0.0352847 0
0.0601345 -0.0341831 0
0.0591547 -0.033071 0
0.0581456 -0.0319502 0
0.0571083 -0.0308224 0
0.0560444 -0.0296893 0
0.0549562 -0.028552 0
0.053845 -0.0274126 0
0.0527113 -0.0262746 0
0.051554 -0.0251427 0
0.0503724 -0.0240222 0
0.0491675 -0.0229164 0
0.047941 -0.0218282 0
0.0466955 -0.0207597 0
0.0454337 -0.0197126 0
0.0441592 -0.0186878 0
0.0428751 -0.0176863 0
0.0415841 -0.0167097 0
0.0402878 -0.0157609 0
0.0389879 -0.0148428 0
0.0376864 -0.0139575 0
0.0363853 -0.013107 0
0.0350871 -0.0122931 0
0.0337942 -0.0115164 0
0.0325095 -0.0107772 0
0.0312357 -0.0100756 0
0.0299758 -0.00941024 0
0.0287337 -0.00877784 0
0.0275126 -0.00817571 0
0.0263139 -0.00760375 0
0.0251376 -0.00706528 0
0.0239829 -0.0065649 0
0.0228537 -0.00609619 0
0.0217522 -0.00565563 0
0.0206795 -0.00524226 0
0.0196364 -0.00485507 0
0.0186233 -0.00449318 0
0.0176408 -0.00415577 0
0.016689 -0.00384204 0
0.0157682 -0.00355115 0
0.0148783 -0.00328218 0
0.0140192 -0.00303468 0
0.0131906 -0.00280795 0
0.0123925 -0.00260016 0
0.0116246 -0.00241012 0
0.0108864 -0.00223769 0
0.0101774 -0.00208212 0
0.00949701 -0.00194206 0
0.00884483 -0.0018163 0
0.0082202 -0.0017039 0
0.00762247 -0.00160391 0
0.00705097 -0.00151528 0
0.006505 -0.00143697 0
0.0059838 -0.00136806 0
0.00548662 -0.00130772 0
0.00501265 -0.00125519 0
0.00456114 -0.00120954 0
0.00413136 -0.00116914 0
0.00372257 -0.00113251 0
0.00333398 -0.00109853 0
0.00296466 -0.00106798 0
0.00261363 -0.0010431 0
-0.052721 -0.0445996 0
-0.0508204 -0.0440823 0
-0.0489199 -0.0435651 0
-0.0470193 -0.0430478 0
-0.0451187 -0.0425306 0
-0.0432181 -0.0420134 0
-0.0413175 -0.0414961 0
-0.039417 -0.0409789 0
-0.0375164 -0.0404616 0
-0.0356158 -0.0399444 0
-0.0337152 -0.0394271 0
-0.0318146 -0.0389099 0
-0.0299141 -0.0383927 0
-0.0280135 -0.0378754 0
-0.0261129 -0.0373582 0
-0.0242123 -0.0368409 0
-0.0223117 -0.0363237 0
-0.0204112 -0.0358065 0
-0.0185106 -0.0352892 0
-0.01661 -0.034772 0
-0.0147094 -0.0342547 0
-0.0128088 -0.0337375 0
-0.0109083 -0.0332202 0
-0.00900769 -0.032703 0
-0.00710711 -0.0321858 0
-0.00520653 -0.0316685 0
-0.00330595 -0.0311513 0
-0.00140537 -0.030634 0
0.00190689 -0.0299614 0
0.00332271 -0.0298498 0
0.00474133 -0.0297825 0
0.00616136 -0.0297597 0
0.0075814 -0.0297814 0
0.00900007 -0.0298477 0
0.010416 -0.0299583 0
0.0118278 -0.0301127 0
0.0132342 -0.0303103 0
0.0146339 -0.0305504 0
0.0160259 -0.0308322 0
0.0174091 -0.0311546 0
0.0187824 -0.0315166 0
0.020145 -0.031917 0
0.0214961 -0.0323546 0
0.0228351 -0.032828 0
0.0241613 -0.0333361 0
0.0254744 -0.0338774 0
0.0267738 -0.0344507 0
0.0280592 -0.0350545 0
0.0293306 -0.0356877 0
0.0305875 -0.0363488 0
0.0318301 -0.0370367 0
0.0330581 -0.0377501 0
0.0342717 -0.0384879 0
0.0354708 -0.0392489 0
0.0366556 -0.0400321 0
0.0378262 -0.0408363 0
0.0389828 -0.0416607 0
0.0401254 -0.0425042 0
0.0412543 -0.0433659 0
0.0423698 -0.0442451 0
0.043472 -0.0451408 0
0.0445612 -0.0460523 0
0.0456375 -0.0469789 0
0.0467013 -0.0479199 0
0.0477529 -0.0488746 0
0.0487923 -0.0498424 0
0.04982 -0.0508227 0
0.0508362 -0.051815 0
0.051841 -0.0528187 0
0.0528348 -0.0538333 0
0.0538178 -0.0548584 0
0.0547903 -0.0558935 0
0.0557524 -0.0569382 0
0.0567045 -0.0579922 0
0.0576467 -0.0590549 0
0.0585792 -0.0601261 0
0.0595024 -0.0612055 0
0.0604163 -0.0622926 0
0.0613212 -0.0633873 0
0.0622174 -0.0644891 0
0.0631049 -0.0655979 0
0.0639841 -0.0667134 0
0.064855 -0.0678353 0
0.0657179 -0.0689633 0
0.0665729 -0.0700974 0
0.0674202 -0.0712372 0
0.06826 -0.0723826 0
0.0690925 -0.0735333 0
0.0699178 -0.0746892 0
0.070736 -0.0758501 0
0.0715473 -0.0770159 0
0.0723518 -0.0781863 0
0.0731498 -0.0793612 0
0.0739412 -0.0805405 0
0.0747264 -0.081724 0
0.0755053 -0.0829116 0
0.0762781 -0.0841033 0
0.0770449 -0.0852987 0
0.0778059 -0.0864979 0
0.0785611 -0.0877007 0
0.0793108 -0.088907 0
0.0814681 -0.0912706 0
0.0828814 -0.0924245 0
0.0842946 -0.0935783 0
0.0857079 -0.0947322 0
0.0871211 -0.095886 0
0.0885344 -0.0970399 0
0.0899476 -0.0981937 0
0.0913609 -0.0993476 0
0.0927741 -0.100501 0
0.0941874 -0.101655 0
0.0956006 -0.102809 0
0.0970139 -0.103963 0
0.0984272 -0.105117 0
0.0998404 -0.106271 0
0.101254 -0.107424 0
0.102667 -0.108578 0
0.10408 -0.109732 0
0.105493 -0.110886 0
0.106907 -0.11204 0
0.10832 -0.113194 0
0.109733 -0.114348 0
0.111146 -0.115501 0
0.11256 -0.116655 0
0.113973 -0.117809 0
0.115386 -0.118963 0
0.116799 -0.120117 0
0.118213 -0.121271 0
0.119626 -0.122424 0
0.121039 -0.123578 0
0.122452 -0.124732 0
0.123866 -0.125886 0
0.125279 -0.12704 0
0.126692 -0.128194 0
0.128105 -0.129348 0
0.129519 -0.130501 0
0.130932 -0.131655 0
0.132345 -0.132809 0
0.133758 -0.133963 0
0.135172 -0.133216 0
0.135172 -0.131316 0
0.135172 -0.129415 0
0.135172 -0.127514 0
0.135172 -0.125614 0
0.135172 -0.123713 0
0.135172 -0.121813 0
0.135172 -0.119912 0
0.135172 -0.118012 0
0.135172 -0.116111 0
0.135172 -0.11421 0
0.135172 -0.11231 0
0.135172 -0.110409 0
0.135172 -0.108509 0
0.135172 -0.106608 0
0.135172 -0.104708 0
0.135172 -0.102807 0
0.135172 -0.100906 0
0.135172 -0.0990058 0
0.135172 -0.0971052 0
0.135172 -0.0952046 0
0.135172 -0.0933041 0
0.135172 -0.0914035 0
0.135172 -0.0895029 0
0.135172 -0.0876023 0
0.135172 -0.0857017 0
0.135172 -0.0838012 0
0.135172 -0.0819006 0
0.133758 -0.0788462 0
0.132345 -0.0776923 0
0.130932 -0.0765385 0
0.129519 -0.0753846 0
0.128105 -0.0742308 0
0.126692 -0.0730769 0
0.125279 -0.0719231 0
0.123866 -0.0707692 0
0.122452 -0.0696154 0
0.121039 -0.0684615 0
0.119626 -0.0673077 0
0.118213 -0.0661538 0
0.116799 -0.065 0
0.115386 -0.0638462 0
0.113973 -0.0626923 0
0.11256 -0.0615385 0
0.111146 -0.0603846 0
0.109733 -0.0592308 0
0.10832 -0.0580769 0
0.106907 -0.0569231 0
0.105493 -0.0557692 0
0.10408 -0.0546154 0
0.102667 -0.0534615 0
0.101254 -0.0523077 0
0.0998404 -0.0511538 0
0.0984272 -0.05 0
0.0970139 -0.0488462 0
0.0956006 -0.0476923 0
[...]
CELL_DATA 13116
SCALARS rho float
LOOKUP_TABLE default
0.600736
0.69781
0.335182
0.699733
0.700312
0.690702
0.3186
0.701505
0.535467
0.699118
0.311519
0.294635
0.700208
0.299318
0.33524
0.690803
0.594974
0.696372
0.704803
0.309839
0.592426
0.379108
0.301165
0.698592
0.59606
0.701241
0.699105
0.331769
0.568656
0.64439
0.559321
0.295209
0.549637
0.459927
0.324531
0.59843
0.673498
0.70939
0.668261
0.699881
0.698193
0.701232
0.487459
0.327531
0.706015
0.705395
0.700366
0.705435
0.335244
0.510762
0.699807
0.487472
0.279697
0.588297
0.55193
0.581295
0.325419
0.69904
0.516683
0.308418
0.299377
0.699203
0.696628
0.652126
0.558923
0.30438
0.695544
0.672272
0.697246
0.554121
0.341867
0.554296
0.365877
0.303728
0.561133
0.33924
0.672192
0.70017
0.30701
0.692349
0.688803
0.701333
0.69923
0.705997
0.70979
0.391031
0.302924
0.661823
0.702121
0.340056
0.296096
0.699482
0.698429
0.702306
0.653117
0.606255
0.59837
0.560681
0.561901
0.573835
0.668288
0.682638
0.698243
0.440137
0.703965
0.281503
0.346205
0.524221
0.324545
0.581623
0.548336
0.698114
0.602692
0.687516
0.693146
0.696305
0.300278
0.379234
0.700387
0.698334
0.670595
0.367164
0.697707
0.295882
0.702708
0.425657
0.303217
0.484419
0.323437
0.507634
0.700219
0.706284
0.45241
0.356097
0.433365
0.630053
0.560124
0.698875
0.666672
0.698435
0.66409
0.701
0.487871
0.666215
0.686134
0.295331
0.325889
0.700964
0.700501
0.700442
0.500477
0.706003
0.705366
0.327303
0.699987
0.705171
0.30617
0.674509
0.561327
0.660765
0.698628
0.310047
0.699793
0.312184
0.353892
0.699695
0.702878
0.695871
0.322071
0.414755
0.387148
0.56075
0.323804
0.478561
0.695525
0.299394
0.368278
0.374185
0.697807
0.686773
0.320135
0.409087
0.56865
0.671513
0.687158
0.520256
0.312122
0.693971
0.696577
0.448658
0.659089
0.700631
0.558512
0.305331
0.697587
0.687553
0.699329
0.694465
0.701608
0.446188
0.446218
0.590846
0.479588
0.301279
0.701329
0.70684
0.493969
0.612581
0.265547
0.322147
0.336852
0.693546
0.310706
0.322437
0.333468
0.330587
0.37174
0.666449
0.702797
0.376461
0.323176
0.695196
0.543963
0.32162
0.501333
0.699022
0.685002
0.332353
0.695394
0.357692
0.702463
0.295636
0.557994
0.540007
0.560602
0.701131
0.574858
0.293671
0.422238
0.658573
0.560821
0.687015
0.56014
0.580337
0.702175
0.37158
0.699528
0.699803
0.564455
0.323475
0.337199
0.706183
0.700255
0.555946
0.705536
0.594103
0.684004
0.31112
0.300198
0.399009
0.261771
0.700641
0.699399
0.671953
0.304111
0.699352
0.307858
0.387255
0.705407
0.320668
0.701496
0.699814
0.5595
0.699062
0.295834
0.559334
0.692505
0.56451
0.698971
0.307718
0.305708
0.309876
0.629647
0.358475
0.361439
0.330841
0.336929
0.709441
0.25287
0.700952
0.700109
0.309597
0.311989
0.307864
0.423984
0.336503
0.660972
0.6626
0.702783
0.322062
0.692606
0.536521
0.309893
0.315061
0.683175
0.700106
0.694087
0.311461
0.688006
0.439022
0.706385
0.700815
0.700255
0.700609
0.309433
0.694993
0.290144
0.692655
0.69859
0.655403
0.317523
0.326727
0.699619
0.306541
0.707925
0.699262
0.398812
0.682694
0.699279
0.307442
0.700421
0.698609
0.274548
0.700273
0.378002
0.521309
0.70339
0.390715
0.675852
0.304854
0.697686
0.329859
0.612517
0.698035
0.699129
0.330843
0.353199
0.70793
0.33028
0.701973
0.696711
0.404406
0.560081
0.314096
0.355728
0.704392
0.506616
0.673756
0.305498
0.310307
0.699505
0.700155
0.325904
0.699961
0.30025
0.283698
0.697609
0.703253
0.530654
0.355464
0.699616
0.559784
0.690157
0.700312
0.700035
0.504257
0.341298
0.284461
0.318476
0.689485
0.32019
0.569353
0.392994
0.299173
0.34814
0.537165
0.117927
0.323521
0.710513
0.29762
0.699828
0.572975
0.704384
0.652887
0.699856
0.356499
0.30644
0.445716
0.399109
0.704423
0.600231
0.700689
0.572407
0.686281
0.625448
0.700962
0.649549
0.642864
0.700258
0.691348
0.689208
0.402198
0.491645
0.597626
0.37463
0.661447
0.583154
0.289846
0.695823
0.560733
0.311742
0.312025
0.321003
0.313492
0.597382
0.336885
0.306012
0.694179
0.306051
0.542939
0.336554
0.691045
0.696652
0.3368
0.363734
0.704648
0.420716
0.3435
0.312551
0.348293
0.324094
0.306965
0.313258
0.380856
0.391863
0.316304
0.683289
0.335734
0.70119
0.382201
0.29539
0.445481
0.296024
0.337277
0.296153
0.699471
0.401291
0.617569
0.53516
0.306108
0.616298
0.702202
0.388127
0.681819
0.630957
0.633088
0.307767
0.56134
0.379801
0.699973
0.559617
0.32086
0.271944
0.698066
0.399481
0.389449
0.6999
0.345894
0.673225
0.689182
0.313096
0.369386
0.322631
0.475259
0.318279
0.249089
0.330681
0.29155
0.699657
0.699391
0.429127
0.577281
0.437172
0.696645
0.361994
0.344954
0.538273
0.321898
0.70626
0.322022
0.361862
0.448073
0.706476
0.702758
0.514647
0.405973
0.276017
0.513017
0.70114
0.5699
0.509911
0.701433
0.700881
0.316857
0.695365
0.535787
0.657327
0.343326
0.337345
0.686454
0.698895
0.650976
0.69894
0.706233
0.701472
0.698202
0.655122
0.703736
0.336754
0.70683
0.318196
0.269713
0.32586
0.699493
0.7067
0.319765
0.709067
0.585024
0.318914
0.613461
0.700189
0.700411
0.331196
0.344866
0.700387
0.347285
0.344781
0.286879
0.317862
0.706847
0.260376
0.699316
0.334725
0.696717
0.699791
0.69585
0.700155
0.348519
0.315866
0.705908
0.702789
0.672521
0.699614
0.699881
0.434502
0.307624
0.324217
0.689529
0.52562
0.321573
0.420264
0.298204
0.702721
0.694432
0.340057
0.379228
0.705262
0.397271
0.710617
0.640206
0.321621
0.357665
0.670368
0.561555
0.315508
0.702468
0.702687
0.706175
0.345034
0.561042
0.318597
0.560445
0.655527
0.356799
0.370173
0.368077
0.560624
0.325814
0.308369
0.382919
0.651253
0.704108
0.308391
0.296374
0.325456
0.626671
0.367604
0.686899
0.295662
0.557014
0.698984
0.404751
0.309415
0.303539
0.436681
0.325139
0.702093
0.311199
0.343904
0.690174
0.300006
0.693033
0.705863
0.560647
0.338338
0.706141
0.699553
0.699573
0.690656
0.702958
0.697126
0.296284
0.563787
0.381344
0.707512
0.307261
0.701859
0.51245
0.318931
0.561003
0.700403
0.342705
0.647414
0.296199
0.346065
0.694041
0.699464
0.29696
0.296209
0.307528
0.295058
0.702901
0.698493
0.344415
0.313063
0.702119
0.698931
0.560533
0.699654
0.693896
0.31048
0.699345
0.393143
0.699749
0.387969
0.593071
0.427751
0.694492
0.675186
0.536037
0.357547
0.329003
0.695536
0.565631
0.586254
0.699686
0.282826
0.696169
0.70006
0.339615
0.490193
0.699661
0.390876
0.559558
0.659755
0.32505
0.699535
0.650985
0.338923
0.703057
0.307968
0.705362
0.333811
0.692969
0.696081
0.328595
0.661799
0.699787
0.700306
0.5883
0.700244
0.537012
0.359465
0.432082
0.295854
0.302096
0.559649
0.504803
0.698156
0.700484
0.331913
0.389568
0.703224
0.698904
0.704356
0.700064
0.312032
0.691148
0.699825
0.310449
0.287641
0.700574
0.706067
0.708448
0.290348
0.542882
0.336713
0.702014
0.708602
0.567403
0.70491
0.319909
0.706375
0.700421
0.699023
0.700206
0.696884
0.378024
0.700054
0.322785
0.681542
0.6994
0.414696
0.689051
0.580244
0.699775
0.455123
0.405227
0.540679
0.643591
0.345981
0.356672
0.32017
0.317286
0.696687
0.69563
0.582653
0.340725
0.31478
0.697001
0.67486
0.268578
0.389359
0.42186
0.678482
0.694574
0.700528
0.69571
0.322928
0.346417
0.559423
0.295695
0.322637
0.316273
0.691131
0.33611
0.348582
0.576894
0.706704
0.698533
0.686365
0.693415
0.300661
0.322369
0.321333
0.541317
0.401821
0.295831
0.672376
0.693536
0.714278
0.699737
0.292274
0.338638
0.698986
0.330941
0.695794
0.697232
0.561373
0.296961
0.349432
0.708367
0.563423
0.618757
0.265511
0.708691
0.688058
0.574461
0.700313
0.70056
0.559333
0.699613
0.313009
0.693107
0.56013
0.660413
0.701269
0.559801
0.699138
0.560192
0.698919
0.342014
0.353252
0.338288
0.559832
0.518357
0.332807
0.703661
0.701742
0.293001
0.650217
0.337517
0.658272
0.528467
0.311181
0.699006
0.698197
0.323634
0.496287
0.560148
0.314888
0.702649
0.301798
0.278801
0.623438
0.589374
0.44496
0.700074
0.319485
0.699898
0.369704
0.291104
0.69257
0.320401
0.607914
0.298017
0.652205
0.592247
0.560762
0.702766
0.297025
0.344856
0.677706
0.493571
0.704591
0.470127
0.600798
0.691325
0.698987
0.503383
0.578338
0.697258
0.69939
0.696486
0.331915
0.354268
0.490491
0.697288
0.69908
0.384778
0.697268
0.619699
0.438849
0.297121
0.657666
0.678208
0.560152
0.56089
0.695608
0.691546
0.670835
0.681916
0.297414
0.648721
0.42003
0.699884
0.70614
0.323436
0.702654
0.70044
0.352151
0.291707
0.307305
0.559843
0.30926
0.620887
0.700589
0.649006
0.294631
0.710549
0.30101
0.544086
0.630771
0.570204
0.670488
0.618687
0.605506
0.687922
0.539179
0.707595
0.332393
0.692811
0.695578
0.477472
0.560287
0.698253
0.313027
0.2922
0.318686
0.700226
0.356414
0.561891
0.320762
0.701559
0.277012
0.428149
0.297901
0.699902
0.699749
0.591447
0.255571
0.608726
0.681414
0.323937
0.562235
0.699421
0.295529
0.582606
0.564541
0.699061
0.696686
0.319948
0.520876
0.703077
0.704727
0.681325
0.3514
0.400674
0.709343
0.560234
0.561368
0.560526
0.582739
0.706249
0.578364
0.699527
0.350909
0.300817
0.560491
0.700476
0.664625
0.30377
0.692905
0.596881
0.621714
0.339989
0.376484
0.699974
0.700317
0.529078
0.328474
0.702972
0.560292
0.3202
0.591953
0.695212
0.322725
0.295305
0.29423
0.6923
0.38124
0.338051
0.701189
0.475002
0.699392
0.653846
0.320068
0.307537
0.699688
0.349932
0.338065
0.56346
0.28706
0.366942
0.586735
0.702951
0.70624
0.315819
0.339978
0.313912
0.705045
0.281129
0.70615
0.329564
0.704779
0.701685
0.706115
0.706369
0.704688
0.708397
0.69436
0.700254
0.705291
0.252784
0.323359
0.699837
0.677436
0.448976
0.697593
0.542159
0.656377
0.660299
0.336273
0.697448
0.69925
0.707846
0.329034
0.70613
0.3403
0.705937
0.437145
0.694197
0.691144
0.314831
0.704706
0.322785
0.455347
0.695459
0.322045
0.676057
0.560035
0.70279
0.313353
0.694074
0.31857
0.296557
0.299582
0.334859
0.666582
0.318262
0.664275
0.599827
0.338883
0.306781
0.430007
0.539982
0.633728
0.687496
0.338894
0.305495
0.323717
0.297739
0.245997
0.636753
0.69903
0.33275
0.626346
0.701167
0.291422
0.69907
0.673226
0.616573
0.317461
0.562215
0.699262
0.70016
0.700118
0.324098
0.706034
0.700348
0.706271
0.656325
0.690385
0.348464
0.300725
0.705891
0.485026
0.352469
0.691899
0.299642
0.522969
0.6412
0.707777
0.705733
0.296395
0.698438
0.398637
0.328298
0.685486
0.700468
0.700418
0.699631
0.669389
0.296873
0.699937
0.304644
0.447188
0.699743
0.560189
0.703673
0.323413
0.305313
0.699567
0.314037
0.7007
0.631802
0.402046
0.364684
0.698555
0.298144
0.690816
0.701198
0.672151
0.29849
0.354108
0.474803
0.537121
0.628038
0.45486
0.690194
0.689139
0.700095
0.559581
0.704292
0.299444
0.367784
0.700121
0.690267
0.677054
0.411406
0.301434
0.692888
0.313651
0.694091
0.582986
0.340233
0.704956
0.312259
0.702281
0.33695
0.700471
0.296179
0.70571
0.685971
0.293631
0.702658
0.64332
0.295847
0.578781
0.703494
0.545324
0.295008
0.381482
0.454673
0.699547
0.689323
0.378241
0.538972
0.704491
0.690157
0.287229
0.631458
0.707894
0.391896
0.690188
0.692801
0.305447
0.705137
0.564037
0.334536
0.607924
0.313862
0.661295
0.31698
0.275549
0.69886
0.339986
0.327441
0.300015
0.694796
0.704054
0.40857
0.703626
0.377174
0.686073
0.319888
0.704326
0.391135
0.691855
0.705849
0.6681
0.57266
0.499147
0.685527
0.616281
0.332315
0.619618
0.668717
0.556288
0.704251
0.436343
0.423842
0.700041
0.319838
0.54292
0.338386
0.69983
0.258723
0.304119
0.698136
0.69382
0.313643
0.699602
0.692573
0.559495
0.700103
0.560369
0.314121
0.699009
0.318098
0.312312
0.702853
0.697208
0.701244
0.702387
0.296472
0.317673
0.315887
0.700397
0.594597
0.379112
0.703197
0.303112
0.315115
0.340063
0.701643
0.386058
0.699577
0.705116
0.616332
0.699744
0.70565
0.584056
0.669791
0.388244
0.295227
0.314438
0.560424
0.5607
0.302782
0.637631
0.690871
0.668277
0.31966
0.459994
0.690132
0.290936
0.686026
0.659491
0.32076
0.679678
0.698213
0.336235
0.706342
0.3337
0.69784
0.699051
0.705388
0.30946
0.41134
0.675177
0.312344
0.382498
0.699334
0.32917
0.68626
0.696221
0.701381
0.692264
0.343499
0.560425
0.684823
0.704662
0.344261
0.700105
0.374639
0.293404
0.7117
0.694675
0.601457
0.23865
0.692246
0.615054
0.560281
0.305196
0.300727
0.347156
0.699369
0.319995
0.309333
0.339519
0.66007
0.33298
0.325634
0.391691
0.706103
0.326732
0.570297
0.661307
0.699552
0.312559
0.70499
0.650027
0.61914
0.379343
0.654195
0.328008
0.320998
0.693875
0.313101
0.6422
0.703382
0.560788
0.326768
0.329491
0.341462
0.510477
0.560049
0.245707
0.708533
0.694548
0.694755
0.32222
0.304894
0.333369
0.695006
0.329199
0.559844
0.572291
0.676458
0.708975
0.308531
0.64707
0.296618
0.668643
0.634561
0.698871
0.649068
0.55918
0.657185
0.679235
0.700241
0.316012
0.401895
0.305348
0.693198
0.528273
0.559637
0.325604
0.385384
0.699961
0.7055
0.562577
0.313852
0.69974
0.508383
0.514219
0.688936
0.324031
0.314484
0.311883
0.694727
0.599172
0.653823
0.696144
0.335875
0.702815
0.649098
0.598513
0.597873
0.702616
0.699172
0.687999
0.697675
0.700292
0.321342
0.700258
0.699705
0.69055
0.70058
0.694932
0.629986
0.319482
0.28649
0.665322
0.35024
0.340154
0.70013
0.350965
0.616235
0.696497
0.698456
0.707465
0.318
0.700154
0.300032
0.301521
0.688572
0.706393
0.698645
0.311243
0.699878
0.700846
0.673278
0.693752
0.376564
0.69064
0.699444
0.695819
0.417319
0.698223
0.31456
0.699461
0.332096
0.321164
0.597793
0.416123
0.698997
0.699595
0.694991
0.342169
0.690438
0.412801
0.3393
0.700211
0.430686
0.345692
0.697582
0.285628
0.456952
0.667129
0.694213
0.713672
0.433315
0.555654
0.655096
0.688658
0.63182
0.700463
0.486502
0.702042
0.695199
0.64755
0.29164
0.307763
0.412257
0.69975
0.314362
0.658936
0.699757
0.605869
0.688881
0.580037
0.677306
0.683528
0.317054
0.699439
0.698045
0.56633
0.700806
0.699668
0.702238
0.686392
0.323129
0.345603
0.707404
0.533943
0.586023
0.698812
0.705817
0.703809
0.698818
0.699164
0.625198
0.689678
0.698716
0.312526
0.294393
0.268465
0.338982
0.561433
0.435813
0.57691
0.705249
0.687662
0.317102
0.707258
0.699718
0.310305
0.366262
0.562449
0.699702
0.325547
0.289033
0.288587
0.559694
0.701585
0.448445
0.303082
0.318679
0.276957
0.387638
0.353592
0.702608
0.705668
0.701275
0.317741
0.699796
0.624496
0.576565
0.368637
0.310241
0.700294
0.559943
0.342332
0.691002
0.334335
0.698351
0.321383
0.699769
0.31183
0.71408
0.699816
0.313966
0.516683
0.342454
0.699058
0.291795
0.62932
0.298507
0.498254
0.329337
0.624574
0.324562
0.564185
0.563121
0.576198
0.704255
0.371937
0.705263
0.680468
0.69985
0.621064
0.68674
0.311121
0.46367
0.304498
0.698874
0.299186
0.700453
0.507864
0.696432
0.699141
0.522583
0.700149
0.345099
0.301129
0.322525
0.492376
0.600911
0.705745
0.322731
0.359462
0.691752
0.348239
0.297679
0.625687
0.368562
0.345804
0.286165
0.701306
0.641634
0.632227
0.303983
0.703052
0.695245
0.293283
0.312
0.700452
0.692568
0.665192
0.46198
0.366646
0.343196
0.321096
0.702984
0.667917
0.530411
0.683431
0.280478
0.574408
0.311089
0.559106
0.700396
0.313651
0.309895
0.670928
0.621099
0.700237
0.700394
0.699777
0.700014
0.699697
0.3314
0.376546
0.305735
0.308381
0.597857
0.560891
0.643596
0.311
0.329936
0.469677
0.295147
0.704536
0.692425
0.33023
0.342856
0.696228
0.317537
0.65521
0.700076
0.706276
0.689985
0.599982
0.343412
0.309991
0.68928
0.314928
0.442088
0.405827
0.679348
0.698258
0.279479
0.321401
0.560452
0.323442
0.69445
0.698698
0.332456
0.353566
0.261256
0.69726
0.301083
0.560091
0.699857
0.611417
0.290331
0.481446
0.700137
0.710629
0.314028
0.70947
0.664718
0.296194
0.701638
0.701429
0.319684
0.345836
0.706804
0.323586
0.308022
0.707114
0.326016
0.705709
0.676661
0.698552
0.663368
0.7005
0.695905
0.684601
0.317816
0.371551
0.677988
0.706703
0.40892
0.699081
0.354963
0.698752
0.712611
0.55953
0.648926
0.461778
0.422615
0.707027
0.700257
0.694417
0.699703
0.694588
0.562415
0.700481
0.559826
0.702943
0.700833
0.702645
0.559997
0.685658
0.295883
0.701541
0.331303
0.698308
0.699831
0.699264
0.707094
0.690187
0.352182
0.33535
0.3217
0.312418
0.703553
0.310162
0.318667
0.691704
0.290097
0.697102
0.319911
0.708304
0.705935
0.340087
0.348864
0.340882
0.699234
0.312105
0.705786
0.70492
0.343429
0.699922
0.518953
0.346406
0.330006
0.292822
0.685503
0.347822
0.699468
0.5773
0.349597
0.696158
0.699463
0.699663
0.334472
0.580742
0.298451
0.700346
0.686144
0.696598
0.353882
0.706808
0.698777
0.701226
0.395925
0.699276
0.342008
0.317459
0.700908
0.430805
0.69938
0.458408
0.351333
0.397061
0.709112
0.327032
0.296526
0.335768
0.530326
0.564261
0.705257
0.285444
0.618696
0.69621
0.508562
0.47681
0.339585
0.521128
0.352579
0.313132
0.706455
0.31902
0.334149
0.700176
0.699704
0.31247
0.694983
0.336613
0.562902
0.333026
0.701479
0.559271
0.691758
0.669782
0.369584
0.3134
0.298598
0.689921
0.702216
0.552627
0.519229
0.34302
0.310295
0.693129
0.315098
0.705778
0.352152
0.563736
0.674235
0.311208
0.327813
0.318893
0.320638
0.329036
0.672921
0.702514
0.312529
0.703631
0.642177
0.355844
0.319646
0.699528
0.342584
0.705983
0.38224
0.693014
0.653521
0.704823
0.563416
0.352934
0.699253
0.698836
0.701287
0.34146
0.685093
0.564826
0.339927
0.699479
0.668945
0.702456
0.705231
0.699632
0.701217
0.700373
0.69067
0.703625
0.337534
0.699446
0.31916
0.47954
0.699319
0.298741
0.712744
0.698099
0.350495
0.70512
0.342511
0.296189
0.702589
0.694859
0.699704
0.318523
0.706039
0.604886
0.333095
0.315721
0.702552
0.694688
0.364037
0.341151
0.699999
0.699509
0.353181
0.646158
0.699943
0.643085
0.309092
0.339836
0.297087
0.653902
0.299312
0.709085
0.692371
0.693991
0.628833
0.705839
0.319568
0.703251
0.589332
0.699911
0.648308
0.304213
0.317958
0.257118
0.698843
0.703948
0.37908
0.651582
0.340885
0.670299
0.69791
0.275004
0.662513
0.708886
0.628226
0.316451
0.305793
0.339197
0.701816
0.69945
0.602169
0.462008
0.705815
0.339573
0.633334
0.559384
0.706646
0.316215
0.601071
0.352021
0.702954
0.27565
0.706394
0.702621
0.302142
0.70155
0.489917
0.559981
0.652582
0.559729
0.700207
0.422994
0.692535
0.70054
0.69734
0.706044
0.422473
0.559439
0.248946
0.702075
0.252261
0.321488
0.277991
0.3281
0.349998
0.314684
0.699688
0.345283
0.322701
0.665914
0.700947
0.703603
0.432029
0.688446
0.682227
0.689386
0.297016
0.646281
0.695601
0.375351
0.338613
0.313559
0.631595
0.452822
0.33158
0.633193
0.293135
0.560517
0.447118
0.302714
0.423759
0.648637
0.338938
0.694568
0.293387
0.547809
0.361906
0.702856
0.375073
0.667228
0.559708
0.693512
0.475736
0.317056
0.702972
0.699311
0.339688
0.296587
0.690993
0.319407
0.697627
0.318869
0.517799
0.265779
0.695683
0.370908
0.699553
0.319496
0.698203
0.705459
0.70033
0.560645
0.25336
0.303898
0.433044
0.701733
0.690556
0.708317
0.605746
0.36547
0.700314
0.339458
0.703919
0.692181
0.430364
0.359948
0.699981
0.70647
0.298328
0.559502
0.702858
0.700267
0.698697
0.295463
0.635228
0.325137
0.700433
0.290095
0.630497
0.699515
0.702941
0.699715
0.351971
0.700384
0.337473
0.321109
0.694101
0.560934
0.542095
0.707209
0.561038
0.339717
0.697315
0.702639
0.700705
0.296766
0.407218
0.682835
0.309967
0.699197
0.699897
0.711878
0.702547
0.288834
0.455572
0.645422
0.302464
0.708585
0.69907
0.474025
0.702751
0.261963
0.688499
0.697639
0.671866
0.702553
0.304856
0.308954
0.705692
0.709905
0.355494
0.372548
0.364835
0.310239
0.313189
0.294964
0.335632
0.351304
0.70586
0.260763
0.309649
0.700363
0.544347
0.561555
0.380492
0.323986
0.696598
0.45697
0.540618
0.6999
0.370063
0.651992
0.56981
0.583023
0.70374
0.314084
0.705034
0.648013
0.345902
0.316427
0.42949
0.697888
0.585199
0.699566
0.691337
0.706534
0.70434
0.350462
0.704164
0.668562
0.702399
0.321347
0.696277
0.672834
0.352437
0.40422
0.262974
0.297976
0.296932
0.588344
0.668682
0.700319
0.314176
0.353156
0.699822
0.293124
0.704507
0.701561
0.711336
0.671888
0.70583
0.365393
0.2982
0.292309
0.585311
0.29287
0.704979
0.289465
0.693863
0.6904
0.700901
0.33961
0.446186
0.415761
0.705691
0.343052
0.312534
0.700445
0.704556
0.651963
0.691257
0.702178
0.697391
0.35154
0.601422
0.700478
0.478817
0.70593
0.70203
0.699363
0.396574
0.379452
0.700804
0.444005
0.634796
0.326904
0.692656
0.711367
0.425416
0.302542
0.697589
0.481686
0.700372
0.704233
0.349077
0.311971
0.563905
0.47085
0.438245
0.703468
0.702538
0.346263
0.709402
0.561174
0.705659
0.355191
0.586626
0.346539
0.700001
0.700393
0.697863
0.697305
0.560009
0.334725
0.377662
0.704358
0.327891
0.57765
0.345815
0.704533
0.294331
0.653821
0.700507
0.560364
0.354182
0.559929
0.564121
0.30998
0.691036
0.292014
0.701295
0.349036
0.310713
0.290481
0.696651
0.703157
0.319684
0.32359
0.701047
0.699773
0.427501