# vtk DataFile Version 1.0
unstructured grid
ascii
DATASET UNSTRUCTURED_GRID
points 13672 float
0.0796578 -0.059106 0
0.00128732 0.00159165 0
0.00227961 -0.00102548 0
0.0791586 -0.0598787 0
-0.0546216 0.01 0
0.000495206 0.025 0
0.0800549 -0.035 0
0.135172 -0.08 0
-0.0546216 -0.0451168 0
0.000495206 -0.0301168 0
0.0800549 -0.0901168 0
0.135172 -0.135117 0
-0.0546216 -0.0451168 -0.00551168
0.000495206 -0.0301168 -0.00551168
0.0800549 -0.0901168 -0.00551168
0.135172 -0.135117 -0.00551168
0.135172 -0.08 -0.00551168
0.0800549 -0.035 -0.00551168
0.000495206 0.025 -0.00551168
-0.0546216 0.01 -0.00551168
0.00128732 0.00159165 -0.00551168
0.00227961 -0.00102548 -0.00551168
0.0791586 -0.0598787 -0.00551168
0.0796578 -0.059106 -0.00551168
0.00165953 -0.000990923 0
0.00119576 -0.000874076 0
0.000866021 -0.000641801 0
0.000645147 -0.000349912 0
0.00052235 -1.7281e-05 0
0.00049972 0.000348016 0
0.000601632 0.000737716 0
0.000861774 0.0011403 0
0.00157235 0.00183217 0
0.00188647 0.00206725 0
0.00222612 0.00230203 0
0.00258713 0.00254351 0
0.00296826 0.00279524 0
0.00337118 0.00305664 0
0.00379785 0.00332658 0
0.00425045 0.00360349 0
0.00473139 0.00388521 0
0.0052432 0.00416895 0
0.0057881 0.00445204 0
0.00636753 0.00473281 0
0.00698281 0.00500961 0
0.00763526 0.00528058 0
0.00832616 0.00554366 0
0.00905691 0.00579603 0
0.00982918 0.00603333 0
0.0106445 0.00625033 0
0.0115038 0.00644128 0
0.0124073 0.00660297 0
0.0133543 0.00673414 0
0.0143444 0.00683382 0
0.0153769 0.00690031 0
0.0164512 0.00693173 0
0.0175666 0.00692547 0
0.0187219 0.00687822 0
0.0199156 0.00678477 0
0.0211454 0.00663864 0
0.0224084 0.00643275 0
0.0237018 0.00616676 0
0.0250249 0.00584739 0
0.026375 0.00547298 0
0.0277479 0.00503752 0
0.0291386 0.00453545 0
0.0305433 0.0039653 0
0.0319572 0.0033256 0
0.0333681 0.00260019 0
0.034775 0.00179799 0
0.0361793 0.000930615 0
0.0375798 3.12222e-06 0
0.0389689 -0.000988429 0
0.0403357 -0.00205109 0
0.041675 -0.00318283 0
0.0429849 -0.00437751 0
0.0442643 -0.00562904 0
0.0455126 -0.00693089 0
0.0467314 -0.00827518 0
0.0479204 -0.00965638 0
0.0490661 -0.0110799 0
0.0501515 -0.0125519 0
0.0511696 -0.0140695 0
0.0521492 -0.0156071 0
0.0531202 -0.0171411 0
0.0540851 -0.0186663 0
0.0550431 -0.0201798 0
0.0559923 -0.0216793 0
0.0569311 -0.0231626 0
0.0578582 -0.0246273 0
0.0587723 -0.0260715 0
0.0596721 -0.027493 0
0.0605563 -0.02889 0
0.0614241 -0.0302609 0
0.0622742 -0.0316042 0
0.063106 -0.0329183 0
0.0639186 -0.034202 0
0.0647113 -0.0354543 0
0.0654835 -0.0366743 0
0.0662345 -0.0378613 0
0.0669642 -0.0390145 0
0.0676726 -0.0401333 0
0.0683597 -0.0412172 0
0.0690246 -0.0422665 0
0.0696662 -0.0432819 0
0.0702841 -0.0442636 0
0.0708793 -0.0452111 0
0.0714538 -0.0461237 0
0.072009 -0.047001 0
0.0725452 -0.0478434 0
0.0730611 -0.0486524 0
0.073556 -0.0494294 0
0.0740291 -0.0501756 0
0.0744812 -0.0508916 0
0.0749138 -0.0515773 0
0.0753285 -0.0522331 0
0.0757266 -0.0528592 0
0.076109 -0.0534564 0
0.0764753 -0.0540264 0
0.0768243 -0.054571 0
0.0771553 -0.0550919 0
0.0774679 -0.0555901 0
0.0777617 -0.0560669 0
0.0780369 -0.056523 0
0.0782958 -0.0569578 0
0.0785421 -0.0573703 0
0.0787786 -0.0577603 0
0.0790073 -0.0581279 0
0.0792295 -0.058474 0
0.0794462 -0.0587995 0
0.0798803 -0.0594162 0
0.0800272 -0.0596588 0
0.0800357 -0.0598891 0
0.0799275 -0.0600784 0
0.0797205 -0.0601773 0
0.0794593 -0.0601051 0
0.0789155 -0.0596491 0
0.0786707 -0.0593963 0
0.0784111 -0.0591319 0
0.0781372 -0.0588542 0
0.0778566 -0.0585548 0
0.0775715 -0.0582308 0
0.0772803 -0.0578828 0
0.0769832 -0.0575099 0
0.0766822 -0.0571097 0
0.0763801 -0.0566796 0
0.0760759 -0.0562196 0
0.0757623 -0.0557337 0
0.0754359 -0.0552232 0
0.0750951 -0.0546879 0
0.0747379 -0.054128 0
0.0743626 -0.0535435 0
0.0739688 -0.0529338 0
0.0735559 -0.0522981 0
0.0731238 -0.0516357 0
0.0726718 -0.050946 0
0.0721991 -0.0502288 0
0.0717046 -0.049484 0
0.0711872 -0.0487117 0
0.0706461 -0.047912 0
0.0700804 -0.0470849 0
0.0694892 -0.0462308 0
0.0688718 -0.0453499 0
0.0682271 -0.0444431 0
0.0675544 -0.043511 0
0.0668527 -0.0425546 0
0.0661215 -0.0415748 0
0.06536 -0.040573 0
0.0645676 -0.0395504 0
0.0637439 -0.0385087 0
0.0628887 -0.0374493 0
0.062002 -0.0363741 0
0.0610838 -0.0352847 0
0.0601345 -0.0341831 0
0.0591547 -0.033071 0
0.0581456 -0.0319502 0
0.0571083 -0.0308224 0
0.0560444 -0.0296893 0
0.0549562 -0.028552 0
0.053845 -0.0274126 0
0.0527113 -0.0262746 0
0.051554 -0.0251427 0
0.0503724 -0.0240222 0
0.0491675 -0.0229164 0
0.047941 -0.0218282 0
0.0466955 -0.0207597 0
0.0454337 -0.0197126 0
0.0441592 -0.0186878 0
0.0428751 -0.0176863 0
0.0415841 -0.0167097 0
0.0402878 -0.0157609 0
0.0389879 -0.0148428 0
0.0376864 -0.0139575 0
0.0363853 -0.013107 0
0.0350871 -0.0122931 0
0.0337942 -0.0115164 0
0.0325095 -0.0107772 0
0.0312357 -0.0100756 0
0.0299758 -0.00941024 0
0.0287337 -0.00877784 0
0.0275126 -0.00817571 0
0.0263139 -0.00760375 0
0.0251376 -0.00706528 0
0.0239829 -0.0065649 0
0.0228537 -0.00609619 0
0.0217522 -0.00565563 0
0.0206795 -0.00524226 0
0.0196364 -0.00485507 0
0.0186233 -0.00449318 0
0.0176408 -0.00415577 0
0.016689 -0.00384204 0
0.0157682 -0.00355115 0
0.0148783 -0.00328218 0
0.0140192 -0.00303468 0
0.0131906 -0.00280795 0
0.0123925 -0.00260016 0
0.0116246 -0.00241012 0
0.0108864 -0.00223769 0
0.0101774 -0.00208212 0
0.00949701 -0.00194206 0
0.00884483 -0.0018163 0
0.0082202 -0.0017039 0
0.00762247 -0.00160391 0
0.00705097 -0.00151528 0
0.006505 -0.00143697 0
0.0059838 -0.00136806 0
0.00548662 -0.00130772 0
0.00501265 -0.00125519 0
0.00456114 -0.00120954 0
0.00413136 -0.00116914 0
0.00372257 -0.00113251 0
0.00333398 -0.00109853 0
0.00296466 -0.00106798 0
0.00261363 -0.0010431 0
-0.052721 -0.0445996 0
-0.0508204 -0.0440823 0
-0.0489199 -0.0435651 0
-0.0470193 -0.0430478 0
-0.0451187 -0.0425306 0
-0.0432181 -0.0420134 0
-0.0413175 -0.0414961 0
-0.039417 -0.0409789 0
-0.0375164 -0.0404616 0
-0.0356158 -0.0399444 0
-0.0337152 -0.0394271 0
-0.0318146 -0.0389099 0
-0.0299141 -0.0383927 0
-0.0280135 -0.0378754 0
-0.0261129 -0.0373582 0
-0.0242123 -0.0368409 0
-0.0223117 -0.0363237 0
-0.0204112 -0.0358065 0
-0.0185106 -0.0352892 0
-0.01661 -0.034772 0
-0.0147094 -0.0342547 0
-0.0128088 -0.0337375 0
-0.0109083 -0.0332202 0
-0.00900769 -0.032703 0
-0.00710711 -0.0321858 0
-0.00520653 -0.0316685 0
-0.00330595 -0.0311513 0
-0.00140537 -0.030634 0
0.00190689 -0.0299614 0
0.00332271 -0.0298498 0
0.00474133 -0.0297825 0
0.00616136 -0.0297597 0
0.0075814 -0.0297814 0
0.00900007 -0.0298477 0
0.010416 -0.0299583 0
0.0118278 -0.0301127 0
0.0132342 -0.0303103 0
0.0146339 -0.0305504 0
0.0160259 -0.0308322 0
0.0174091 -0.0311546 0
0.0187824 -0.0315166 0
0.020145 -0.031917 0
0.0214961 -0.0323546 0
0.0228351 -0.032828 0
0.0241613 -0.0333361 0
0.0254744 -0.0338774 0
0.0267738 -0.0344507 0
0.0280592 -0.0350545 0
0.0293306 -0.0356877 0
0.0305875 -0.0363488 0
0.0318301 -0.0370367 0
0.0330581 -0.0377501 0
0.0342717 -0.0384879 0
0.0354708 -0.0392489 0
0.0366556 -0.0400321 0
0.0378262 -0.0408363 0
0.0389828 -0.0416607 0
0.0401254 -0.0425042 0
0.0412543 -0.0433659 0
0.0423698 -0.0442451 0
0.043472 -0.0451408 0
0.0445612 -0.0460523 0
0.0456375 -0.0469789 0
0.0467013 -0.0479199 0
0.0477529 -0.0488746 0
0.0487923 -0.0498424 0
0.04982 -0.0508227 0
0.0508362 -0.051815 0
0.051841 -0.0528187 0
0.0528348 -0.0538333 0
0.0538178 -0.0548584 0
0.0547903 -0.0558935 0
0.0557524 -0.0569382 0
0.0567045 -0.0579922 0
0.0576467 -0.0590549 0
0.0585792 -0.0601261 0
0.0595024 -0.0612055 0
0.0604163 -0.0622926 0
0.0613212 -0.0633873 0
0.0622174 -0.0644891 0
0.0631049 -0.0655979 0
0.0639841 -0.0667134 0
0.064855 -0.0678353 0
0.0657179 -0.0689633 0
0.0665729 -0.0700974 0
0.0674202 -0.0712372 0
0.06826 -0.0723826 0
0.0690925 -0.0735333 0
0.0699178 -0.0746892 0
0.070736 -0.0758501 0
0.0715473 -0.0770159 0
0.0723518 -0.0781863 0
0.0731498 -0.0793612 0
0.0739412 -0.0805405 0
0.0747264 -0.081724 0
0.0755053 -0.0829116 0
0.0762781 -0.0841033 0
0.0770449 -0.0852987 0
0.0778059 -0.0864979 0
0.0785611 -0.0877007 0
0.0793108 -0.088907 0
0.0814681 -0.0912706 0
0.0828814 -0.0924245 0
0.0842946 -0.0935783 0
0.0857079 -0.0947322 0
0.0871211 -0.095886 0
0.0885344 -0.0970399 0
0.0899476 -0.0981937 0
0.0913609 -0.0993476 0
0.0927741 -0.100501 0
0.0941874 -0.101655 0
0.0956006 -0.102809 0
0.0970139 -0.103963 0
0.0984272 -0.105117 0
0.0998404 -0.106271 0
0.101254 -0.107424 0
0.102667 -0.108578 0
0.10408 -0.109732 0
0.105493 -0.110886 0
0.106907 -0.11204 0
0.10832 -0.113194 0
0.109733 -0.114348 0
0.111146 -0.115501 0
0.11256 -0.116655 0
0.113973 -0.117809 0
0.115386 -0.118963 0
0.116799 -0.120117 0
0.118213 -0.121271 0
0.119626 -0.122424 0
0.121039 -0.123578 0
0.122452 -0.124732 0
0.123866 -0.125886 0
0.125279 -0.12704 0
0.126692 -0.128194 0
0.128105 -0.129348 0
0.129519 -0.130501 0
0.130932 -0.131655 0
0.132345 -0.132809 0
0.133758 -0.133963 0
0.135172 -0.133216 0
0.135172 -0.131316 0
0.135172 -0.129415 0
0.135172 -0.127514 0
0.135172 -0.125614 0
0.135172 -0.123713 0
0.135172 -0.121813 0
0.135172 -0.119912 0
0.135172 -0.118012 0
0.135172 -0.116111 0
0.135172 -0.11421 0
0.135172 -0.11231 0
0.135172 -0.110409 0
0.135172 -0.108509 0
0.135172 -0.106608 0
0.135172 -0.104708 0
0.135172 -0.102807 0
0.135172 -0.100906 0
0.135172 -0.0990058 0
0.135172 -0.0971052 0
0.135172 -0.0952046 0
0.135172 -0.0933041 0
0.135172 -0.0914035 0
0.135172 -0.0895029 0
0.135172 -0.0876023 0
0.135172 -0.0857017 0
0.135172 -0.0838012 0
0.135172 -0.0819006 0
0.133758 -0.0788462 0
0.132345 -0.0776923 0
0.130932 -0.0765385 0
0.129519 -0.0753846 0
0.128105 -0.0742308 0
0.126692 -0.0730769 0
0.125279 -0.0719231 0
0.123866 -0.0707692 0
0.122452 -0.0696154 0
0.121039 -0.0684615 0
0.119626 -0.0673077 0
0.118213 -0.0661538 0
0.116799 -0.065 0
0.115386 -0.0638462 0
0.113973 -0.0626923 0
0.11256 -0.0615385 0
0.111146 -0.0603846 0
0.109733 -0.0592308 0
0.10832 -0.0580769 0
0.106907 -0.0569231 0
0.105493 -0.0557692 0
0.10408 -0.0546154 0
0.102667 -0.0534615 0
0.101254 -0.0523077 0
0.0998404 -0.0511538 0
0.0984272 -0.05 0
0.0970139 -0.0488462 0
0.0956006 -0.0476923 0
[...]
CELL_DATA 13116
SCALARS rho float
LOOKUP_TABLE default
0.571007
0.683916
0.38159
0.701538
0.703315
0.68652
0.318822
0.702341
0.514944
0.701839
0.331135
0.312086
0.703017
0.315652
0.315405
0.686864
0.568554
0.686897
0.699958
0.309733
0.564413
0.349402
0.324678
0.691417
0.581015
0.713335
0.70196
0.328907
0.557709
0.630138
0.566069
0.317523
0.536833
0.439422
0.326294
0.568492
0.658865
0.705642
0.648089
0.697459
0.697104
0.702341
0.444513
0.337132
0.702906
0.700922
0.687599
0.701448
0.32313
0.500449
0.700717
0.449159
0.274849
0.561522
0.537725
0.568309
0.332095
0.693282
0.508595
0.296724
0.319425
0.70106
0.680925
0.626378
0.560549
0.32653
0.694183
0.660391
0.701251
0.556788
0.322983
0.543054
0.356912
0.326404
0.56413
0.372106
0.656753
0.705566
0.320296
0.682549
0.674947
0.712914
0.693797
0.704903
0.704762
0.384233
0.311997
0.650617
0.708611
0.34474
0.319861
0.685602
0.696744
0.708007
0.639964
0.592207
0.583371
0.561011
0.564405
0.560061
0.654418
0.653898
0.697836
0.416632
0.692199
0.296396
0.336508
0.487237
0.327764
0.569496
0.512831
0.707104
0.588746
0.676135
0.683253
0.695561
0.305347
0.370842
0.705593
0.697046
0.659182
0.359171
0.701661
0.319302
0.707378
0.422462
0.309947
0.479899
0.326385
0.499541
0.705538
0.699112
0.448262
0.336134
0.42934
0.611288
0.56004
0.700855
0.652399
0.697097
0.65354
0.687505
0.481887
0.655911
0.670999
0.311392
0.331467
0.716105
0.703348
0.700975
0.494178
0.704545
0.700784
0.344947
0.701677
0.706266
0.325707
0.661498
0.560929
0.649235
0.691066
0.32746
0.696905
0.326501
0.366159
0.701179
0.708566
0.686123
0.323864
0.408934
0.379936
0.560166
0.2944
0.470174
0.695238
0.323696
0.345621
0.353701
0.706657
0.696543
0.314998
0.405532
0.535458
0.657054
0.69699
0.510608
0.331709
0.692697
0.694379
0.441382
0.644851
0.716002
0.557194
0.324342
0.710605
0.690186
0.700327
0.695849
0.707451
0.39474
0.417416
0.577627
0.47573
0.325514
0.702791
0.705932
0.456064
0.5973
0.277746
0.337549
0.365555
0.691027
0.326327
0.319865
0.339104
0.3487
0.36119
0.6468
0.707699
0.368471
0.33018
0.693425
0.508208
0.316045
0.495858
0.701266
0.670844
0.330764
0.694965
0.347545
0.702429
0.318127
0.562189
0.529753
0.560778
0.707997
0.563477
0.29658
0.418628
0.646057
0.562889
0.692416
0.559984
0.566578
0.701977
0.345471
0.70115
0.701681
0.561089
0.343481
0.324759
0.705739
0.705297
0.563861
0.705676
0.565635
0.674233
0.329532
0.308466
0.392981
0.278858
0.686753
0.700021
0.657192
0.314127
0.705874
0.323178
0.379779
0.693083
0.338432
0.715789
0.701372
0.564592
0.69343
0.29936
0.564543
0.681108
0.560656
0.701622
0.321036
0.311469
0.325377
0.608145
0.361317
0.335671
0.320773
0.317365
0.699325
0.25135
0.709115
0.702746
0.317848
0.3106
0.321589
0.422155
0.39154
0.649833
0.635034
0.701106
0.338016
0.697488
0.528553
0.312643
0.302814
0.672824
0.705068
0.695102
0.332434
0.689878
0.423589
0.699357
0.702157
0.700248
0.702026
0.324481
0.694134
0.275947
0.689771
0.701697
0.639421
0.3196
0.316898
0.701469
0.319378
0.690184
0.701018
0.385158
0.67183
0.693544
0.312839
0.705947
0.696524
0.282646
0.705337
0.370189
0.514484
0.699893
0.383363
0.66317
0.314867
0.689173
0.314532
0.589209
0.667117
0.70139
0.32935
0.342153
0.705562
0.348932
0.703883
0.69787
0.400302
0.56017
0.33774
0.362902
0.705016
0.500304
0.660543
0.311491
0.326232
0.700484
0.70295
0.33559
0.703066
0.312121
0.296235
0.696561
0.700458
0.496717
0.355954
0.703329
0.562099
0.68726
0.707321
0.698115
0.498022
0.40487
0.270927
0.314513
0.687212
0.315887
0.535971
0.383328
0.322767
0.336597
0.504334
0.100201
0.342788
0.705319
0.31706
0.698069
0.561185
0.698645
0.640319
0.702758
0.363943
0.310277
0.396782
0.379936
0.703655
0.586421
0.697608
0.560917
0.670678
0.609249
0.713244
0.639602
0.628295
0.698582
0.681472
0.684748
0.395638
0.459316
0.568058
0.353342
0.632463
0.570128
0.287171
0.695202
0.561965
0.32516
0.313334
0.327306
0.330256
0.584184
0.329071
0.324504
0.691169
0.325263
0.532051
0.342293
0.687503
0.682077
0.384933
0.33968
0.704691
0.41848
0.347167
0.327378
0.348766
0.32759
0.30756
0.314175
0.345648
0.384687
0.330022
0.652752
0.374778
0.707193
0.392314
0.318226
0.439728
0.307528
0.342812
0.310297
0.699064
0.395462
0.602082
0.499026
0.325117
0.600828
0.709236
0.381194
0.671026
0.616708
0.619859
0.304744
0.560831
0.371631
0.697135
0.566391
0.326431
0.267087
0.6922
0.384603
0.382217
0.670576
0.336321
0.659817
0.673565
0.310078
0.344148
0.294667
0.465855
0.302842
0.273446
0.306238
0.278552
0.701414
0.701338
0.427609
0.563401
0.433988
0.707395
0.348053
0.351123
0.520007
0.32662
0.704421
0.316225
0.351529
0.443645
0.703682
0.707839
0.507943
0.3863
0.266096
0.507238
0.702192
0.560361
0.504474
0.688526
0.685054
0.326429
0.68042
0.525724
0.644235
0.323039
0.391163
0.674721
0.7
0.637641
0.701611
0.7015
0.706907
0.69019
0.640265
0.698204
0.329955
0.70417
0.307722
0.28587
0.325072
0.701506
0.706099
0.304503
0.704636
0.572946
0.321861
0.587663
0.704866
0.693818
0.328625
0.35283
0.705317
0.349952
0.347632
0.297724
0.325282
0.701613
0.278787
0.701191
0.374056
0.682813
0.700663
0.699076
0.702885
0.350884
0.313615
0.705959
0.702791
0.657826
0.701308
0.701741
0.427973
0.309973
0.326993
0.696905
0.511626
0.327959
0.417632
0.322257
0.699624
0.692972
0.319322
0.348128
0.70532
0.390086
0.705783
0.622679
0.326285
0.347171
0.655011
0.560494
0.326553
0.707326
0.708016
0.706054
0.364873
0.560193
0.326098
0.560698
0.642503
0.356887
0.359002
0.338955
0.560563
0.327948
0.314208
0.375705
0.62671
0.696517
0.316662
0.30595
0.33315
0.602085
0.357028
0.694322
0.312132
0.545812
0.701379
0.392004
0.326353
0.325283
0.430183
0.326908
0.710559
0.336685
0.347864
0.68634
0.287125
0.689892
0.688181
0.56101
0.328849
0.705047
0.697867
0.700139
0.69703
0.699607
0.696295
0.314935
0.561253
0.373706
0.701211
0.318882
0.702031
0.490641
0.308335
0.560522
0.702038
0.357279
0.636289
0.320008
0.325916
0.691048
0.700982
0.322067
0.312636
0.319323
0.3135
0.699683
0.691473
0.363792
0.306641
0.703504
0.6982
0.548904
0.698066
0.692266
0.328023
0.701538
0.38647
0.700705
0.382591
0.579265
0.421759
0.693168
0.662132
0.527725
0.342148
0.328748
0.696891
0.555326
0.559935
0.697756
0.275185
0.683
0.701679
0.328064
0.456079
0.699045
0.380045
0.55899
0.647072
0.31629
0.698229
0.637633
0.375931
0.69355
0.325037
0.70355
0.362088
0.69083
0.680591
0.327465
0.642039
0.697268
0.704947
0.575968
0.686813
0.528682
0.331555
0.420693
0.315773
0.325897
0.560319
0.499348
0.700229
0.703387
0.324039
0.355104
0.692325
0.701655
0.704497
0.701574
0.316418
0.68114
0.701795
0.310785
0.301069
0.705664
0.705334
0.704258
0.310447
0.534291
0.328977
0.691242
0.690216
0.561868
0.692148
0.325376
0.696242
0.708286
0.695465
0.704871
0.696466
0.369873
0.698162
0.337417
0.670272
0.701316
0.409106
0.67348
0.566203
0.700471
0.423368
0.401977
0.53211
0.627522
0.349228
0.356955
0.338224
0.33155
0.682861
0.681828
0.564289
0.319604
0.330318
0.701381
0.662132
0.284469
0.353341
0.417676
0.663717
0.695067
0.707713
0.687774
0.337474
0.349685
0.562927
0.319035
0.319625
0.340377
0.694251
0.321294
0.350901
0.563759
0.70439
0.704958
0.681378
0.692311
0.309428
0.28972
0.336866
0.508152
0.395775
0.318788
0.659752
0.685177
0.699185
0.697285
0.313883
0.333231
0.701601
0.336815
0.696269
0.681894
0.560853
0.321908
0.348761
0.700089
0.560863
0.592739
0.280871
0.705826
0.685207
0.560867
0.700692
0.701809
0.563668
0.686879
0.315451
0.691458
0.558681
0.648999
0.690401
0.560281
0.70565
0.560313
0.702357
0.345458
0.350831
0.33514
0.560455
0.494135
0.339076
0.692952
0.703062
0.311998
0.636117
0.368528
0.64321
0.491855
0.304946
0.701462
0.690195
0.331084
0.49131
0.561371
0.326298
0.70904
0.326166
0.29306
0.607991
0.575123
0.439349
0.6981
0.339016
0.697337
0.348169
0.313785
0.689822
0.326101
0.593547
0.322076
0.638715
0.578019
0.560332
0.70827
0.250585
0.34781
0.66053
0.45029
0.704152
0.448014
0.586955
0.686444
0.694779
0.460886
0.566642
0.707743
0.700723
0.695963
0.317689
0.355702
0.485376
0.709529
0.701068
0.378064
0.697909
0.594408
0.396422
0.321754
0.641823
0.663333
0.56011
0.560421
0.6666
0.679449
0.652661
0.667401
0.320337
0.633806
0.416258
0.698795
0.705286
0.304331
0.698132
0.704359
0.358706
0.290664
0.318967
0.559974
0.326036
0.604672
0.695823
0.633557
0.301938
0.703393
0.325168
0.535587
0.604987
0.562068
0.657756
0.597455
0.590427
0.673761
0.515539
0.700916
0.353382
0.695216
0.699144
0.434001
0.560353
0.685436
0.325832
0.261446
0.325955
0.700262
0.356869
0.560154
0.335587
0.70221
0.273655
0.422083
0.318358
0.696318
0.701251
0.56377
0.244731
0.593054
0.669035
0.330137
0.549935
0.701458
0.318284
0.569215
0.561942
0.701208
0.696408
0.326305
0.483194
0.704398
0.699576
0.670783
0.352868
0.397516
0.706266
0.560504
0.560958
0.560123
0.554311
0.699602
0.549897
0.697777
0.352521
0.32508
0.560189
0.703966
0.641539
0.32619
0.695675
0.568785
0.610755
0.37619
0.367531
0.703023
0.701342
0.520409
0.392427
0.697398
0.560461
0.323744
0.578006
0.68698
0.328645
0.318077
0.264712
0.701577
0.348715
0.330093
0.706692
0.452413
0.701241
0.638924
0.315018
0.306834
0.701317
0.356867
0.334036
0.561604
0.302411
0.353967
0.572901
0.699656
0.703758
0.331854
0.418749
0.33565
0.687907
0.298492
0.70441
0.30796
0.695097
0.699184
0.704256
0.692558
0.692946
0.690969
0.693782
0.703292
0.705519
0.273577
0.336604
0.685795
0.663315
0.442905
0.70077
0.532116
0.632381
0.647397
0.384578
0.696283
0.701407
0.702047
0.347097
0.69615
0.380646
0.70536
0.430816
0.684818
0.697538
0.307785
0.702831
0.330087
0.435087
0.679803
0.340777
0.663624
0.560144
0.700445
0.333533
0.691067
0.334366
0.321754
0.322755
0.340144
0.647771
0.289506
0.652289
0.580784
0.390636
0.324289
0.423655
0.531326
0.61794
0.6766
0.328959
0.322453
0.334575
0.318309
0.23968
0.621067
0.708296
0.327469
0.596106
0.695669
0.276477
0.701521
0.659983
0.591565
0.339381
0.560153
0.685266
0.699729
0.699454
0.31107
0.703394
0.70216
0.696987
0.639923
0.689866
0.328744
0.323285
0.703649
0.480455
0.35235
0.689563
0.323184
0.515841
0.628648
0.702184
0.704224
0.320398
0.699106
0.39224
0.347723
0.6754
0.704745
0.701942
0.702265
0.654965
0.322497
0.70216
0.29259
0.441104
0.701309
0.565789
0.704355
0.345167
0.310125
0.701382
0.312962
0.70533
0.614826
0.397535
0.334837
0.697055
0.322005
0.69755
0.705188
0.657218
0.32234
0.352657
0.472427
0.511111
0.612558
0.449451
0.687811
0.678213
0.708373
0.560095
0.694843
0.274887
0.336442
0.705543
0.68954
0.666729
0.405142
0.32581
0.677481
0.269935
0.692553
0.570847
0.402345
0.703247
0.325334
0.701867
0.384726
0.703026
0.296891
0.705843
0.695864
0.31411
0.707719
0.627565
0.315491
0.566962
0.699906
0.534473
0.305943
0.372984
0.445989
0.698403
0.668812
0.362128
0.530717
0.696677
0.685816
0.305051
0.621493
0.695547
0.384461
0.688104
0.689721
0.281335
0.705567
0.560304
0.378107
0.594214
0.327656
0.646731
0.338602
0.292137
0.699449
0.337968
0.335091
0.251992
0.692703
0.689509
0.3998
0.69771
0.366184
0.671688
0.333598
0.690881
0.383112
0.68689
0.703383
0.651889
0.568789
0.49402
0.695403
0.594629
0.333445
0.603858
0.65311
0.52782
0.694286
0.429862
0.411299
0.702481
0.312693
0.5318
0.378589
0.697705
0.280874
0.324192
0.69002
0.691992
0.31154
0.698124
0.684111
0.56049
0.701508
0.560566
0.315776
0.701692
0.316592
0.326404
0.709682
0.689889
0.702252
0.70664
0.318216
0.339421
0.335204
0.686719
0.579508
0.368845
0.699376
0.325611
0.338138
0.37288
0.708909
0.379845
0.701229
0.705216
0.600845
0.703277
0.705551
0.568921
0.656934
0.381003
0.316258
0.312552
0.560524
0.560262
0.326531
0.622103
0.699017
0.653232
0.32639
0.425728
0.679359
0.297847
0.674776
0.635395
0.318779
0.674925
0.684293
0.34149
0.703737
0.326472
0.699413
0.701948
0.694153
0.263916
0.404655
0.662922
0.296287
0.37481
0.703836
0.30995
0.687258
0.695773
0.715899
0.683794
0.407987
0.560712
0.674922
0.699686
0.332585
0.703797
0.348896
0.302276
0.703718
0.694
0.589402
0.236308
0.696791
0.599718
0.564973
0.32454
0.307422
0.3498
0.699311
0.328169
0.290476
0.376844
0.633567
0.315164
0.310571
0.38474
0.705002
0.327488
0.566979
0.647747
0.69713
0.334936
0.704296
0.636932
0.591946
0.370675
0.637652
0.33406
0.315387
0.690759
0.311409
0.628145
0.693646
0.560267
0.323522
0.320362
0.357997
0.504895
0.560024
0.243383
0.705679
0.692063
0.686584
0.337313
0.282855
0.320249
0.674646
0.336797
0.559913
0.561374
0.674052
0.706277
0.322165
0.634541
0.316246
0.638122
0.617372
0.701691
0.620703
0.531817
0.642781
0.669137
0.705495
0.326119
0.391858
0.325298
0.683834
0.516069
0.566083
0.323027
0.378596
0.696969
0.70462
0.559573
0.31241
0.697413
0.502914
0.508114
0.670777
0.327223
0.313432
0.286988
0.693502
0.58031
0.636877
0.705741
0.326402
0.700588
0.632419
0.579176
0.574871
0.700739
0.701397
0.687435
0.690253
0.701181
0.32653
0.703813
0.702225
0.690645
0.704893
0.69535
0.606866
0.320695
0.304572
0.654258
0.351839
0.399175
0.6975
0.329902
0.601276
0.700756
0.684183
0.703165
0.326999
0.697905
0.322551
0.326152
0.687933
0.700182
0.697607
0.335658
0.70271
0.698
0.661027
0.693644
0.350504
0.691258
0.701292
0.681883
0.394552
0.690671
0.333877
0.7008
0.349227
0.322709
0.571586
0.411976
0.701377
0.695216
0.696408
0.373665
0.690239
0.402047
0.317909
0.703629
0.423917
0.348637
0.697242
0.297604
0.451269
0.656091
0.682727
0.701586
0.426862
0.546585
0.643213
0.697196
0.607397
0.702293
0.481704
0.701327
0.705701
0.634049
0.311597
0.322691
0.407085
0.703
0.326324
0.647032
0.698415
0.59117
0.697258
0.54999
0.666079
0.669215
0.340972
0.69778
0.695745
0.5394
0.695601
0.701571
0.709318
0.676649
0.336853
0.344511
0.700677
0.520519
0.55609
0.698472
0.705654
0.698002
0.700223
0.701713
0.608286
0.67832
0.701778
0.274358
0.312076
0.285619
0.38184
0.560242
0.433747
0.546496
0.703204
0.674309
0.326505
0.703247
0.701612
0.334302
0.356251
0.560173
0.703629
0.326831
0.309894
0.301549
0.559972
0.715188
0.396235
0.27667
0.317321
0.296504
0.372138
0.354384
0.702241
0.702557
0.688646
0.331308
0.685722
0.612811
0.56563
0.339837
0.312687
0.704518
0.560044
0.346348
0.686899
0.339814
0.690367
0.326511
0.697435
0.314799
0.699778
0.702232
0.335313
0.510349
0.324654
0.701668
0.305593
0.617958
0.322272
0.487058
0.338222
0.614002
0.327628
0.568
0.556367
0.564949
0.691999
0.343666
0.691893
0.666833
0.702687
0.608804
0.67218
0.312583
0.421231
0.325901
0.697042
0.291588
0.704537
0.50073
0.688786
0.70112
0.484781
0.698857
0.323207
0.325308
0.284869
0.485959
0.574458
0.705914
0.336809
0.335984
0.689429
0.337898
0.321192
0.598827
0.358151
0.348827
0.304731
0.702265
0.623757
0.620429
0.325843
0.688764
0.693769
0.316162
0.298429
0.708031
0.690964
0.635574
0.456684
0.35735
0.331488
0.340578
0.700166
0.654851
0.51127
0.67363
0.278388
0.55992
0.325221
0.559822
0.704629
0.314473
0.308914
0.660858
0.594509
0.703333
0.701634
0.699905
0.699106
0.701224
0.350251
0.352429
0.325414
0.32121
0.569165
0.562264
0.625746
0.320185
0.32362
0.44523
0.318086
0.69833
0.681191
0.336583
0.321876
0.699947
0.326674
0.643252
0.698567
0.68905
0.687976
0.571141
0.346815
0.31594
0.676225
0.315529
0.426861
0.39767
0.664177
0.696843
0.287131
0.319704
0.560471
0.328262
0.69426
0.697173
0.331604
0.360209
0.249014
0.701123
0.304573
0.560111
0.689451
0.596969
0.312301
0.477005
0.705401
0.704416
0.319517
0.700319
0.654223
0.318723
0.705706
0.701222
0.341543
0.343445
0.699304
0.33577
0.319944
0.694482
0.316345
0.703098
0.664904
0.694796
0.652519
0.704091
0.695614
0.687986
0.333793
0.363101
0.668019
0.701055
0.402421
0.701659
0.336625
0.702334
0.702489
0.548192
0.635798
0.421745
0.419463
0.703974
0.704536
0.70391
0.701945
0.698472
0.560176
0.701642
0.560476
0.700486
0.704497
0.699743
0.560144
0.693137
0.315733
0.711183
0.329601
0.696961
0.70373
0.693604
0.690525
0.681417
0.358194
0.354876
0.305006
0.322388
0.686891
0.305141
0.341234
0.677958
0.311294
0.689177
0.339979
0.695804
0.703959
0.336356
0.339038
0.403018
0.700965
0.32618
0.705946
0.702243
0.358139
0.704571
0.511139
0.398257
0.329203
0.315719
0.675098
0.345132
0.697624
0.548286
0.326445
0.699579
0.697183
0.699422
0.34025
0.567634
0.320948
0.686562
0.678621
0.695727
0.35497
0.700188
0.699893
0.702441
0.391435
0.701617
0.346495
0.32814
0.706365
0.428845
0.70153
0.413551
0.352996
0.389978
0.698351
0.327751
0.317899
0.373821
0.493553
0.560341
0.703491
0.294286
0.606821
0.699507
0.503224
0.440204
0.406194
0.513483
0.354245
0.323304
0.704967
0.328332
0.34052
0.700372
0.701553
0.338654
0.685233
0.358956
0.560159
0.329045
0.705529
0.559482
0.682936
0.661928
0.352267
0.326099
0.322233
0.685386
0.701776
0.54371
0.512443
0.333426
0.302058
0.695118
0.333418
0.702936
0.341968
0.562067
0.662561
0.324467
0.33386
0.324718
0.319533
0.333498
0.662397
0.686709
0.315156
0.704269
0.627597
0.329515
0.285144
0.701538
0.346567
0.705386
0.374754
0.684616
0.641314
0.703881
0.560391
0.335838
0.701826
0.696685
0.702271
0.342286
0.668887
0.554407
0.398413
0.701522
0.653095
0.701181
0.691109
0.701137
0.707769
0.701944
0.690834
0.699433
0.328475
0.697293
0.324254
0.454074
0.70471
0.322034
0.701393
0.683311
0.332567
0.700328
0.341833
0.320201
0.71016
0.67206
0.701519
0.336988
0.691636
0.590729
0.322066
0.327969
0.707187
0.693155
0.35362
0.374651
0.69405
0.701435
0.34672
0.632362
0.702241
0.625463
0.324234
0.344884
0.31982
0.641554
0.298358
0.700322
0.682754
0.695616
0.618634
0.70529
0.337903
0.705508
0.576636
0.702671
0.620193
0.323712
0.328669
0.290165
0.692029
0.70362
0.371635
0.639071
0.426805
0.654229
0.696665
0.277595
0.651682
0.701223
0.611536
0.331369
0.312964
0.386234
0.70522
0.701449
0.588215
0.456723
0.705413
0.344389
0.617586
0.565192
0.699546
0.333388
0.587955
0.33208
0.690428
0.294649
0.705169
0.70968
0.325493
0.705648
0.447755
0.560192
0.638369
0.559919
0.699942
0.417029
0.694826
0.696891
0.695456
0.705614
0.415637
0.564773
0.262885
0.69708
0.286313
0.317465
0.283698
0.330316
0.352314
0.328048
0.701235
0.334641
0.296457
0.652189
0.705609
0.688306
0.397501
0.67898
0.672283
0.68566
0.319184
0.620844
0.694555
0.359466
0.379956
0.327277
0.615504
0.44687
0.328497
0.614608
0.315054
0.560673
0.441069
0.304689
0.417748
0.635156
0.387238
0.69342
0.266374
0.519352
0.351495
0.699793
0.366155
0.652882
0.564672
0.691491
0.437569
0.319586
0.700097
0.70121
0.376008
0.321915
0.686333
0.317258
0.68978
0.33306
0.510976
0.288688
0.69458
0.354951
0.701135
0.316071
0.696868
0.705756
0.704854
0.560415
0.261342
0.325096
0.39646
0.711349
0.676504
0.699101
0.579183
0.339397
0.697774
0.403077
0.700363
0.661127
0.411882
0.331613
0.698779
0.705865
0.32148
0.565416
0.699272
0.700639
0.695016
0.268449
0.61955
0.333008
0.701751
0.294558
0.612634
0.702533
0.698853
0.701379
0.327262
0.701908
0.336647
0.344758
0.693662
0.560445
0.530971
0.702488
0.561158
0.344451
0.688081
0.701232
0.702028
0.321872
0.403444
0.672322
0.304565
0.702882
0.698735
0.702744
0.699466
0.28395
0.441585
0.629624
0.325427
0.703728
0.701347
0.460725
0.709886
0.249622
0.676447
0.688832
0.659058
0.708661
0.313377
0.324586
0.705925
0.699148
0.336403
0.348794
0.356154
0.326364
0.289035
0.316428
0.378312
0.352094
0.705603
0.287379
0.325245
0.692891
0.532098
0.56019
0.372903
0.32142
0.700488
0.449702
0.50593
0.701513
0.360111
0.636659
0.559497
0.570634
0.690555
0.325692
0.703905
0.624478
0.355046
0.328801
0.413681
0.681166
0.572569
0.701131
0.687219
0.700052
0.691412
0.393665
0.705494
0.653009
0.703174
0.325156
0.69684
0.642529
0.393106
0.39869
0.25562
0.318849
0.276249
0.573875
0.657733
0.686329
0.323522
0.343486
0.702076
0.312995
0.700566
0.697084
0.702153
0.658638
0.704744
0.362005
0.320113
0.309826
0.568504
0.300359
0.700524
0.30691
0.691587
0.687151
0.703566
0.379958
0.437463
0.41209
0.70573
0.373172
0.327125
0.697865
0.691388
0.642122
0.686615
0.706985
0.689787
0.353664
0.587853
0.703271
0.474601
0.705668
0.700231
0.694164
0.38924
0.372116
0.702094
0.437796
0.62383
0.334102
0.67814
0.704474
0.395368
0.299938
0.683401
0.478935
0.704233
0.699775
0.347248
0.312212
0.560526
0.427094
0.401339
0.70687
0.707418
0.328586
0.706095
0.561055
0.689258
0.354918
0.571879
0.349956
0.708941
0.704841
0.690734
0.683262
0.560963
0.314843
0.365571
0.69308
0.326396
0.566478
0.32604
0.704389
0.306103
0.640943
0.703033
0.560852
0.355128
0.559908
0.560341
0.324189
0.676184
0.314796
0.702369
0.351278
0.319198
0.293718
0.681752
0.703793
0.297463
0.301762
0.71636
0.701431