# vtk DataFile Version 1.0
unstructured grid
ascii
DATASET UNSTRUCTURED_GRID
points 13672 float
0.0796578 -0.059106 0
0.00128732 0.00159165 0
0.00227961 -0.00102548 0
0.0791586 -0.0598787 0
-0.0546216 0.01 0
0.000495206 0.025 0
0.0800549 -0.035 0
0.135172 -0.08 0
-0.0546216 -0.0451168 0
0.000495206 -0.0301168 0
0.0800549 -0.0901168 0
0.135172 -0.135117 0
-0.0546216 -0.0451168 -0.00551168
0.000495206 -0.0301168 -0.00551168
0.0800549 -0.0901168 -0.00551168
0.135172 -0.135117 -0.00551168
0.135172 -0.08 -0.00551168
0.0800549 -0.035 -0.00551168
0.000495206 0.025 -0.00551168
-0.0546216 0.01 -0.00551168
0.00128732 0.00159165 -0.00551168
0.00227961 -0.00102548 -0.00551168
0.0791586 -0.0598787 -0.00551168
0.0796578 -0.059106 -0.00551168
0.00165953 -0.000990923 0
0.00119576 -0.000874076 0
0.000866021 -0.000641801 0
0.000645147 -0.000349912 0
0.00052235 -1.7281e-05 0
0.00049972 0.000348016 0
0.000601632 0.000737716 0
0.000861774 0.0011403 0
0.00157235 0.00183217 0
0.00188647 0.00206725 0
0.00222612 0.00230203 0
0.00258713 0.00254351 0
0.00296826 0.00279524 0
0.00337118 0.00305664 0
0.00379785 0.00332658 0
0.00425045 0.00360349 0
0.00473139 0.00388521 0
0.0052432 0.00416895 0
0.0057881 0.00445204 0
0.00636753 0.00473281 0
0.00698281 0.00500961 0
0.00763526 0.00528058 0
0.00832616 0.00554366 0
0.00905691 0.00579603 0
0.00982918 0.00603333 0
0.0106445 0.00625033 0
0.0115038 0.00644128 0
0.0124073 0.00660297 0
0.0133543 0.00673414 0
0.0143444 0.00683382 0
0.0153769 0.00690031 0
0.0164512 0.00693173 0
0.0175666 0.00692547 0
0.0187219 0.00687822 0
0.0199156 0.00678477 0
0.0211454 0.00663864 0
0.0224084 0.00643275 0
0.0237018 0.00616676 0
0.0250249 0.00584739 0
0.026375 0.00547298 0
0.0277479 0.00503752 0
0.0291386 0.00453545 0
0.0305433 0.0039653 0
0.0319572 0.0033256 0
0.0333681 0.00260019 0
0.034775 0.00179799 0
0.0361793 0.000930615 0
0.0375798 3.12222e-06 0
0.0389689 -0.000988429 0
0.0403357 -0.00205109 0
0.041675 -0.00318283 0
0.0429849 -0.00437751 0
0.0442643 -0.00562904 0
0.0455126 -0.00693089 0
0.0467314 -0.00827518 0
0.0479204 -0.00965638 0
0.0490661 -0.0110799 0
0.0501515 -0.0125519 0
0.0511696 -0.0140695 0
0.0521492 -0.0156071 0
0.0531202 -0.0171411 0
0.0540851 -0.0186663 0
0.0550431 -0.0201798 0
0.0559923 -0.0216793 0
0.0569311 -0.0231626 0
0.0578582 -0.0246273 0
0.0587723 -0.0260715 0
0.0596721 -0.027493 0
0.0605563 -0.02889 0
0.0614241 -0.0302609 0
0.0622742 -0.0316042 0
0.063106 -0.0329183 0
0.0639186 -0.034202 0
0.0647113 -0.0354543 0
0.0654835 -0.0366743 0
0.0662345 -0.0378613 0
0.0669642 -0.0390145 0
0.0676726 -0.0401333 0
0.0683597 -0.0412172 0
0.0690246 -0.0422665 0
0.0696662 -0.0432819 0
0.0702841 -0.0442636 0
0.0708793 -0.0452111 0
0.0714538 -0.0461237 0
0.072009 -0.047001 0
0.0725452 -0.0478434 0
0.0730611 -0.0486524 0
0.073556 -0.0494294 0
0.0740291 -0.0501756 0
0.0744812 -0.0508916 0
0.0749138 -0.0515773 0
0.0753285 -0.0522331 0
0.0757266 -0.0528592 0
0.076109 -0.0534564 0
0.0764753 -0.0540264 0
0.0768243 -0.054571 0
0.0771553 -0.0550919 0
0.0774679 -0.0555901 0
0.0777617 -0.0560669 0
0.0780369 -0.056523 0
0.0782958 -0.0569578 0
0.0785421 -0.0573703 0
0.0787786 -0.0577603 0
0.0790073 -0.0581279 0
0.0792295 -0.058474 0
0.0794462 -0.0587995 0
0.0798803 -0.0594162 0
0.0800272 -0.0596588 0
0.0800357 -0.0598891 0
0.0799275 -0.0600784 0
0.0797205 -0.0601773 0
0.0794593 -0.0601051 0
0.0789155 -0.0596491 0
0.0786707 -0.0593963 0
0.0784111 -0.0591319 0
0.0781372 -0.0588542 0
0.0778566 -0.0585548 0
0.0775715 -0.0582308 0
0.0772803 -0.0578828 0
0.0769832 -0.0575099 0
0.0766822 -0.0571097 0
0.0763801 -0.0566796 0
0.0760759 -0.0562196 0
0.0757623 -0.0557337 0
0.0754359 -0.0552232 0
0.0750951 -0.0546879 0
0.0747379 -0.054128 0
0.0743626 -0.0535435 0
0.0739688 -0.0529338 0
0.0735559 -0.0522981 0
0.0731238 -0.0516357 0
0.0726718 -0.050946 0
0.0721991 -0.0502288 0
0.0717046 -0.049484 0
0.0711872 -0.0487117 0
0.0706461 -0.047912 0
0.0700804 -0.0470849 0
0.0694892 -0.0462308 0
0.0688718 -0.0453499 0
0.0682271 -0.0444431 0
0.0675544 -0.043511 0
0.0668527 -0.0425546 0
0.0661215 -0.0415748 0
0.06536 -0.040573 0
0.0645676 -0.0395504 0
0.0637439 -0.0385087 0
0.0628887 -0.0374493 0
0.062002 -0.0363741 0
0.0610838 -0.0352847 0
0.0601345 -0.0341831 0
0.0591547 -0.033071 0
0.0581456 -0.0319502 0
0.0571083 -0.0308224 0
0.0560444 -0.0296893 0
0.0549562 -0.028552 0
0.053845 -0.0274126 0
0.0527113 -0.0262746 0
0.051554 -0.0251427 0
0.0503724 -0.0240222 0
0.0491675 -0.0229164 0
0.047941 -0.0218282 0
0.0466955 -0.0207597 0
0.0454337 -0.0197126 0
0.0441592 -0.0186878 0
0.0428751 -0.0176863 0
0.0415841 -0.0167097 0
0.0402878 -0.0157609 0
0.0389879 -0.0148428 0
0.0376864 -0.0139575 0
0.0363853 -0.013107 0
0.0350871 -0.0122931 0
0.0337942 -0.0115164 0
0.0325095 -0.0107772 0
0.0312357 -0.0100756 0
0.0299758 -0.00941024 0
0.0287337 -0.00877784 0
0.0275126 -0.00817571 0
0.0263139 -0.00760375 0
0.0251376 -0.00706528 0
0.0239829 -0.0065649 0
0.0228537 -0.00609619 0
0.0217522 -0.00565563 0
0.0206795 -0.00524226 0
0.0196364 -0.00485507 0
0.0186233 -0.00449318 0
0.0176408 -0.00415577 0
0.016689 -0.00384204 0
0.0157682 -0.00355115 0
0.0148783 -0.00328218 0
0.0140192 -0.00303468 0
0.0131906 -0.00280795 0
0.0123925 -0.00260016 0
0.0116246 -0.00241012 0
0.0108864 -0.00223769 0
0.0101774 -0.00208212 0
0.00949701 -0.00194206 0
0.00884483 -0.0018163 0
0.0082202 -0.0017039 0
0.00762247 -0.00160391 0
0.00705097 -0.00151528 0
0.006505 -0.00143697 0
0.0059838 -0.00136806 0
0.00548662 -0.00130772 0
0.00501265 -0.00125519 0
0.00456114 -0.00120954 0
0.00413136 -0.00116914 0
0.00372257 -0.00113251 0
0.00333398 -0.00109853 0
0.00296466 -0.00106798 0
0.00261363 -0.0010431 0
-0.052721 -0.0445996 0
-0.0508204 -0.0440823 0
-0.0489199 -0.0435651 0
-0.0470193 -0.0430478 0
-0.0451187 -0.0425306 0
-0.0432181 -0.0420134 0
-0.0413175 -0.0414961 0
-0.039417 -0.0409789 0
-0.0375164 -0.0404616 0
-0.0356158 -0.0399444 0
-0.0337152 -0.0394271 0
-0.0318146 -0.0389099 0
-0.0299141 -0.0383927 0
-0.0280135 -0.0378754 0
-0.0261129 -0.0373582 0
-0.0242123 -0.0368409 0
-0.0223117 -0.0363237 0
-0.0204112 -0.0358065 0
-0.0185106 -0.0352892 0
-0.01661 -0.034772 0
-0.0147094 -0.0342547 0
-0.0128088 -0.0337375 0
-0.0109083 -0.0332202 0
-0.00900769 -0.032703 0
-0.00710711 -0.0321858 0
-0.00520653 -0.0316685 0
-0.00330595 -0.0311513 0
-0.00140537 -0.030634 0
0.00190689 -0.0299614 0
0.00332271 -0.0298498 0
0.00474133 -0.0297825 0
0.00616136 -0.0297597 0
0.0075814 -0.0297814 0
0.00900007 -0.0298477 0
0.010416 -0.0299583 0
0.0118278 -0.0301127 0
0.0132342 -0.0303103 0
0.0146339 -0.0305504 0
0.0160259 -0.0308322 0
0.0174091 -0.0311546 0
0.0187824 -0.0315166 0
0.020145 -0.031917 0
0.0214961 -0.0323546 0
0.0228351 -0.032828 0
0.0241613 -0.0333361 0
0.0254744 -0.0338774 0
0.0267738 -0.0344507 0
0.0280592 -0.0350545 0
0.0293306 -0.0356877 0
0.0305875 -0.0363488 0
0.0318301 -0.0370367 0
0.0330581 -0.0377501 0
0.0342717 -0.0384879 0
0.0354708 -0.0392489 0
0.0366556 -0.0400321 0
0.0378262 -0.0408363 0
0.0389828 -0.0416607 0
0.0401254 -0.0425042 0
0.0412543 -0.0433659 0
0.0423698 -0.0442451 0
0.043472 -0.0451408 0
0.0445612 -0.0460523 0
0.0456375 -0.0469789 0
0.0467013 -0.0479199 0
0.0477529 -0.0488746 0
0.0487923 -0.0498424 0
0.04982 -0.0508227 0
0.0508362 -0.051815 0
0.051841 -0.0528187 0
0.0528348 -0.0538333 0
0.0538178 -0.0548584 0
0.0547903 -0.0558935 0
0.0557524 -0.0569382 0
0.0567045 -0.0579922 0
0.0576467 -0.0590549 0
0.0585792 -0.0601261 0
0.0595024 -0.0612055 0
0.0604163 -0.0622926 0
0.0613212 -0.0633873 0
0.0622174 -0.0644891 0
0.0631049 -0.0655979 0
0.0639841 -0.0667134 0
0.064855 -0.0678353 0
0.0657179 -0.0689633 0
0.0665729 -0.0700974 0
0.0674202 -0.0712372 0
0.06826 -0.0723826 0
0.0690925 -0.0735333 0
0.0699178 -0.0746892 0
0.070736 -0.0758501 0
0.0715473 -0.0770159 0
0.0723518 -0.0781863 0
0.0731498 -0.0793612 0
0.0739412 -0.0805405 0
0.0747264 -0.081724 0
0.0755053 -0.0829116 0
0.0762781 -0.0841033 0
0.0770449 -0.0852987 0
0.0778059 -0.0864979 0
0.0785611 -0.0877007 0
0.0793108 -0.088907 0
0.0814681 -0.0912706 0
0.0828814 -0.0924245 0
0.0842946 -0.0935783 0
0.0857079 -0.0947322 0
0.0871211 -0.095886 0
0.0885344 -0.0970399 0
0.0899476 -0.0981937 0
0.0913609 -0.0993476 0
0.0927741 -0.100501 0
0.0941874 -0.101655 0
0.0956006 -0.102809 0
0.0970139 -0.103963 0
0.0984272 -0.105117 0
0.0998404 -0.106271 0
0.101254 -0.107424 0
0.102667 -0.108578 0
0.10408 -0.109732 0
0.105493 -0.110886 0
0.106907 -0.11204 0
0.10832 -0.113194 0
0.109733 -0.114348 0
0.111146 -0.115501 0
0.11256 -0.116655 0
0.113973 -0.117809 0
0.115386 -0.118963 0
0.116799 -0.120117 0
0.118213 -0.121271 0
0.119626 -0.122424 0
0.121039 -0.123578 0
0.122452 -0.124732 0
0.123866 -0.125886 0
0.125279 -0.12704 0
0.126692 -0.128194 0
0.128105 -0.129348 0
0.129519 -0.130501 0
0.130932 -0.131655 0
0.132345 -0.132809 0
0.133758 -0.133963 0
0.135172 -0.133216 0
0.135172 -0.131316 0
0.135172 -0.129415 0
0.135172 -0.127514 0
0.135172 -0.125614 0
0.135172 -0.123713 0
0.135172 -0.121813 0
0.135172 -0.119912 0
0.135172 -0.118012 0
0.135172 -0.116111 0
0.135172 -0.11421 0
0.135172 -0.11231 0
0.135172 -0.110409 0
0.135172 -0.108509 0
0.135172 -0.106608 0
0.135172 -0.104708 0
0.135172 -0.102807 0
0.135172 -0.100906 0
0.135172 -0.0990058 0
0.135172 -0.0971052 0
0.135172 -0.0952046 0
0.135172 -0.0933041 0
0.135172 -0.0914035 0
0.135172 -0.0895029 0
0.135172 -0.0876023 0
0.135172 -0.0857017 0
0.135172 -0.0838012 0
0.135172 -0.0819006 0
0.133758 -0.0788462 0
0.132345 -0.0776923 0
0.130932 -0.0765385 0
0.129519 -0.0753846 0
0.128105 -0.0742308 0
0.126692 -0.0730769 0
0.125279 -0.0719231 0
0.123866 -0.0707692 0
0.122452 -0.0696154 0
0.121039 -0.0684615 0
0.119626 -0.0673077 0
0.118213 -0.0661538 0
0.116799 -0.065 0
0.115386 -0.0638462 0
0.113973 -0.0626923 0
0.11256 -0.0615385 0
0.111146 -0.0603846 0
0.109733 -0.0592308 0
0.10832 -0.0580769 0
0.106907 -0.0569231 0
0.105493 -0.0557692 0
0.10408 -0.0546154 0
0.102667 -0.0534615 0
0.101254 -0.0523077 0
0.0998404 -0.0511538 0
0.0984272 -0.05 0
0.0970139 -0.0488462 0
0.0956006 -0.0476923 0
[...]
CELL_DATA 13116
SCALARS rho float
LOOKUP_TABLE default
0.617182
0.689138
0.379631
0.689112
0.692908
0.686455
0.354723
0.689955
0.584895
0.693371
0.356368
0.383237
0.692891
0.367419
0.390223
0.686409
0.652372
0.701342
0.693177
0.355288
0.59491
0.415268
0.37945
0.699192
0.597704
0.686599
0.693405
0.38872
0.59725
0.690093
0.648884
0.38863
0.59072
0.546948
0.354969
0.600555
0.706705
0.690733
0.679944
0.688298
0.689773
0.689678
0.572767
0.370952
0.691315
0.693028
0.680854
0.694945
0.413449
0.573388
0.68984
0.566773
0.353965
0.648887
0.591796
0.597702
0.370202
0.698306
0.57597
0.400025
0.368329
0.691896
0.68586
0.679982
0.667719
0.355385
0.687498
0.716548
0.687379
0.678084
0.39018
0.593094
0.409115
0.364958
0.55476
0.364523
0.684645
0.690718
0.354891
0.702642
0.712302
0.685989
0.698307
0.69757
0.685835
0.503671
0.350854
0.712369
0.686421
0.35826
0.379717
0.689799
0.696619
0.688411
0.691824
0.593127
0.597702
0.591184
0.577235
0.597597
0.723894
0.674324
0.689828
0.524293
0.679889
0.396938
0.474728
0.585814
0.38352
0.597706
0.592905
0.683213
0.596498
0.710364
0.702062
0.687776
0.353285
0.492264
0.688931
0.688131
0.71576
0.411578
0.687511
0.378544
0.688318
0.524917
0.350941
0.558877
0.378645
0.571576
0.689125
0.701119
0.538039
0.417145
0.527273
0.672838
0.558118
0.688429
0.727465
0.688111
0.677737
0.681365
0.560876
0.677662
0.684181
0.377064
0.355311
0.685327
0.693747
0.689864
0.566791
0.697035
0.694205
0.35784
0.693948
0.686105
0.382762
0.714316
0.594902
0.716889
0.698952
0.356016
0.696528
0.38197
0.40829
0.691124
0.687365
0.701545
0.354874
0.515933
0.499747
0.558319
0.38716
0.556124
0.687752
0.380735
0.402272
0.411714
0.68305
0.680244
0.358318
0.513104
0.597106
0.707958
0.680112
0.577804
0.351818
0.688018
0.679531
0.539908
0.681589
0.684932
0.679745
0.38629
0.683076
0.683187
0.696475
0.688246
0.685843
0.473452
0.525757
0.597703
0.556229
0.368672
0.693163
0.693521
0.570762
0.589986
0.390573
0.357872
0.361906
0.686356
0.385078
0.358201
0.358371
0.357976
0.485372
0.680399
0.688079
0.497815
0.367832
0.687376
0.591327
0.358329
0.566281
0.693158
0.683582
0.389756
0.687747
0.485144
0.690024
0.386933
0.680467
0.586957
0.555165
0.68742
0.680004
0.415101
0.522953
0.721821
0.552546
0.681384
0.558133
0.680289
0.690018
0.405588
0.689016
0.693325
0.576473
0.356489
0.416597
0.694349
0.688823
0.678703
0.699685
0.621178
0.70581
0.356414
0.425046
0.488273
0.388589
0.678916
0.696453
0.683139
0.352657
0.687141
0.350157
0.500212
0.680139
0.357471
0.686358
0.690084
0.556711
0.698207
0.413625
0.557674
0.711291
0.587558
0.688257
0.355034
0.350946
0.386391
0.671809
0.408284
0.426956
0.464289
0.453708
0.689967
0.357452
0.68724
0.691162
0.351251
0.356399
0.349677
0.522747
0.387566
0.708923
0.673112
0.682121
0.357549
0.685866
0.584674
0.422319
0.399766
0.682585
0.688558
0.688314
0.351469
0.68468
0.532494
0.700311
0.689567
0.689625
0.689647
0.386343
0.687669
0.373564
0.687433
0.693003
0.738562
0.35767
0.461958
0.693198
0.349772
0.684502
0.691695
0.453752
0.708473
0.69841
0.34986
0.686983
0.696645
0.370039
0.689708
0.500713
0.576969
0.69087
0.504167
0.713563
0.3525
0.699585
0.464625
0.680302
0.674567
0.696388
0.38863
0.476983
0.685948
0.357955
0.694985
0.68042
0.509963
0.558101
0.354388
0.396966
0.700364
0.569725
0.715885
0.350522
0.383004
0.688933
0.691338
0.355605
0.690652
0.357735
0.401578
0.687801
0.690477
0.596724
0.358291
0.688404
0.656905
0.686418
0.686822
0.694032
0.56901
0.413539
0.383571
0.358278
0.686313
0.358333
0.59755
0.460515
0.384846
0.473632
0.597358
0.230228
0.357736
0.687167
0.383991
0.695988
0.59763
0.694263
0.686067
0.689328
0.396902
0.35128
0.481653
0.431345
0.703126
0.597058
0.693052
0.597618
0.68485
0.673704
0.685437
0.679097
0.690413
0.69361
0.703632
0.685484
0.492243
0.565647
0.615204
0.40892
0.672777
0.597707
0.353206
0.687729
0.556248
0.3871
0.356362
0.358127
0.35332
0.597699
0.366126
0.38641
0.686781
0.354361
0.588362
0.358532
0.687011
0.704988
0.391632
0.416794
0.70156
0.520273
0.358332
0.352616
0.358351
0.384263
0.351152
0.356723
0.42229
0.502711
0.357223
0.673886
0.406254
0.68697
0.44904
0.374145
0.532264
0.380519
0.358242
0.381383
0.687499
0.508089
0.597702
0.592835
0.35297
0.589746
0.687066
0.50198
0.708129
0.689443
0.689196
0.351402
0.56794
0.493155
0.695899
0.618911
0.3868
0.357793
0.679131
0.433046
0.503241
0.674883
0.474049
0.717971
0.684991
0.356949
0.398991
0.378639
0.554434
0.396915
0.362769
0.387277
0.371793
0.690528
0.690022
0.526017
0.597692
0.529791
0.682776
0.477364
0.364119
0.58624
0.387107
0.698867
0.434477
0.482705
0.535575
0.691308
0.686753
0.574202
0.449633
0.35617
0.572073
0.689838
0.680044
0.570421
0.680279
0.678688
0.357257
0.704017
0.585056
0.721593
0.461665
0.387975
0.712462
0.696899
0.68243
0.693291
0.685167
0.687463
0.699006
0.723779
0.69397
0.358245
0.690809
0.466988
0.395778
0.358352
0.688934
0.693499
0.458402
0.685715
0.597706
0.357863
0.680112
0.688167
0.703588
0.388245
0.362058
0.689667
0.35831
0.358325
0.388308
0.357436
0.697028
0.366737
0.688164
0.404994
0.689365
0.689309
0.686775
0.691992
0.358338
0.357767
0.695942
0.69013
0.692128
0.69062
0.693455
0.52519
0.350313
0.387636
0.685273
0.580524
0.358175
0.519758
0.384447
0.689219
0.687739
0.460533
0.417579
0.686287
0.507002
0.688475
0.595687
0.377314
0.484421
0.688894
0.554377
0.382332
0.686328
0.687481
0.694981
0.36425
0.558324
0.367412
0.557269
0.709164
0.358312
0.483292
0.426228
0.563624
0.383591
0.35371
0.494796
0.679889
0.70669
0.354104
0.421411
0.358216
0.679877
0.410532
0.681229
0.375335
0.594064
0.69324
0.453541
0.381084
0.379938
0.526327
0.387725
0.687056
0.352221
0.371206
0.685719
0.366996
0.68639
0.683053
0.575566
0.35805
0.699441
0.695971
0.696236
0.685491
0.690537
0.687689
0.387718
0.679314
0.499756
0.694334
0.354681
0.689956
0.574087
0.354506
0.657236
0.694264
0.357962
0.680388
0.381879
0.387687
0.686669
0.687423
0.38274
0.381069
0.354605
0.388521
0.689684
0.69903
0.362834
0.356416
0.695903
0.688492
0.595104
0.695992
0.687676
0.356245
0.695614
0.503098
0.689633
0.498062
0.59771
0.52262
0.687523
0.716106
0.585131
0.473622
0.387632
0.687969
0.596667
0.629683
0.696019
0.384354
0.711069
0.694302
0.485663
0.566425
0.696114
0.457182
0.674036
0.727
0.45928
0.688134
0.691878
0.387274
0.707799
0.38633
0.685358
0.366147
0.686173
0.685102
0.388798
0.68011
0.69624
0.690281
0.597705
0.701087
0.585592
0.446658
0.528758
0.379762
0.364677
0.55819
0.568369
0.687856
0.69374
0.358261
0.424047
0.703538
0.693221
0.70147
0.690132
0.356364
0.703808
0.693281
0.355677
0.380109
0.688971
0.694039
0.685758
0.392136
0.587776
0.393059
0.708368
0.682143
0.680236
0.691125
0.357968
0.695748
0.687118
0.697077
0.687418
0.683088
0.498836
0.693435
0.357875
0.677678
0.693263
0.515889
0.685445
0.680284
0.689226
0.534872
0.510868
0.587361
0.675578
0.358278
0.358285
0.357612
0.357438
0.690438
0.710406
0.680295
0.456355
0.35693
0.68724
0.716832
0.367694
0.427867
0.520364
0.69929
0.688119
0.686836
0.699008
0.358019
0.35828
0.558083
0.376876
0.358202
0.354049
0.688258
0.392352
0.358372
0.597629
0.695129
0.682852
0.683284
0.688095
0.353338
0.376037
0.357782
0.596976
0.508408
0.38553
0.717179
0.699952
0.685559
0.685072
0.389793
0.358151
0.693338
0.358268
0.681
0.684524
0.624884
0.382722
0.358366
0.685083
0.653971
0.664186
0.367993
0.686442
0.684849
0.597402
0.689886
0.690156
0.558127
0.679996
0.356652
0.68798
0.67192
0.676992
0.709
0.558147
0.683398
0.558722
0.688078
0.36968
0.386401
0.358242
0.658275
0.576801
0.358246
0.702549
0.694679
0.38243
0.681839
0.393835
0.682288
0.592834
0.415987
0.692783
0.699771
0.35831
0.562582
0.658328
0.372663
0.68848
0.359645
0.396468
0.665569
0.597706
0.53206
0.690917
0.357645
0.696232
0.396305
0.385554
0.686254
0.358068
0.593198
0.384923
0.681094
0.597708
0.558018
0.68677
0.383931
0.374056
0.676623
0.578615
0.70253
0.552517
0.595338
0.686604
0.697633
0.582122
0.597706
0.682981
0.696196
0.687727
0.468061
0.358331
0.560044
0.683047
0.696707
0.482199
0.689073
0.665921
0.479954
0.383306
0.745765
0.701447
0.558231
0.559936
0.675744
0.712196
0.680694
0.711266
0.387481
0.678369
0.519148
0.688469
0.693499
0.452995
0.691419
0.691776
0.390148
0.408144
0.349635
0.558146
0.355922
0.63041
0.699746
0.67842
0.437653
0.690116
0.369555
0.588494
0.680011
0.680068
0.717127
0.679933
0.597703
0.711151
0.586368
0.693709
0.366375
0.683137
0.686702
0.569037
0.559414
0.709293
0.386697
0.385449
0.373526
0.689769
0.358356
0.558039
0.357896
0.690009
0.35915
0.523029
0.385121
0.696334
0.69029
0.624753
0.431928
0.597703
0.680355
0.358029
0.595518
0.690074
0.385973
0.597707
0.607383
0.693196
0.683343
0.387246
0.586475
0.698542
0.693931
0.677981
0.358272
0.507135
0.688197
0.558029
0.556681
0.558176
0.597649
0.702117
0.597625
0.68802
0.35833
0.370187
0.558181
0.692707
0.680022
0.357712
0.685478
0.593617
0.677154
0.370769
0.494282
0.690708
0.688389
0.581959
0.42296
0.689395
0.55739
0.355034
0.597704
0.698631
0.355115
0.367139
0.375602
0.680729
0.418374
0.358296
0.686741
0.555098
0.695841
0.68354
0.354541
0.350706
0.690793
0.387258
0.366685
0.649615
0.402944
0.48025
0.597707
0.690694
0.699849
0.357167
0.3982
0.356445
0.68435
0.398058
0.700292
0.366793
0.702459
0.689467
0.68954
0.680729
0.696669
0.681815
0.688012
0.691894
0.70098
0.364504
0.357668
0.692974
0.681056
0.533343
0.681472
0.587421
0.679972
0.676573
0.390517
0.68783
0.690954
0.692363
0.356479
0.69666
0.392286
0.697918
0.526226
0.701466
0.685481
0.417572
0.704181
0.358202
0.544001
0.686221
0.355491
0.715199
0.558198
0.689805
0.353137
0.686756
0.357634
0.382075
0.384839
0.358342
0.675573
0.389573
0.679083
0.680446
0.426252
0.386288
0.523489
0.586994
0.687836
0.678933
0.358092
0.350835
0.355666
0.383896
0.427887
0.690324
0.684014
0.389225
0.680403
0.703496
0.373468
0.691413
0.718324
0.680387
0.357119
0.55389
0.700898
0.693083
0.688786
0.396926
0.70181
0.693829
0.697283
0.765543
0.680466
0.430624
0.385213
0.696871
0.556579
0.358364
0.686135
0.385552
0.578067
0.684454
0.685191
0.685691
0.382893
0.680878
0.484253
0.356615
0.706023
0.690413
0.694677
0.689072
0.696747
0.382311
0.692883
0.397729
0.532274
0.691112
0.56966
0.70038
0.356624
0.418166
0.693205
0.435562
0.689646
0.596029
0.508441
0.441046
0.687893
0.385742
0.685269
0.690499
0.690338
0.385434
0.389246
0.553343
0.585021
0.685352
0.542776
0.686493
0.678993
0.686858
0.55821
0.704087
0.353135
0.436855
0.690534
0.680122
0.677647
0.513985
0.366072
0.702403
0.383765
0.687702
0.597706
0.409925
0.70393
0.356266
0.68934
0.38116
0.693909
0.410742
0.697901
0.680313
0.370166
0.68848
0.67578
0.368582
0.680325
0.691167
0.588865
0.378416
0.47841
0.543055
0.696107
0.677177
0.419811
0.585832
0.706063
0.685492
0.439427
0.679207
0.689211
0.505338
0.686188
0.687458
0.450988
0.698279
0.603832
0.377766
0.590058
0.354806
0.681727
0.357108
0.397938
0.696851
0.35825
0.358242
0.381004
0.687295
0.687813
0.498513
0.691671
0.479359
0.693399
0.357797
0.688646
0.46513
0.686786
0.696975
0.6858
0.68039
0.56427
0.680246
0.680413
0.385552
0.597704
0.6884
0.597269
0.702989
0.526678
0.517618
0.692893
0.358254
0.588342
0.394996
0.691961
0.362842
0.386221
0.700049
0.687907
0.35711
0.688121
0.700436
0.558162
0.690192
0.564284
0.356965
0.692273
0.357861
0.383682
0.687291
0.698317
0.689636
0.686665
0.389949
0.35698
0.356191
0.689405
0.68042
0.477902
0.690882
0.355498
0.355426
0.366591
0.68717
0.496709
0.692759
0.70123
0.597704
0.687381
0.701058
0.597716
0.680777
0.50115
0.369811
0.357391
0.556436
0.551751
0.359951
0.690872
0.679575
0.681969
0.386778
0.538808
0.679409
0.413082
0.678571
0.673528
0.358122
0.680454
0.691255
0.358343
0.699029
0.363974
0.687674
0.695204
0.696315
0.385932
0.513597
0.715851
0.455249
0.502916
0.687479
0.460386
0.680492
0.687668
0.685988
0.700863
0.417052
0.650267
0.706102
0.693657
0.476422
0.689377
0.404794
0.374494
0.688849
0.687943
0.680458
0.368065
0.68583
0.597702
0.552715
0.352154
0.357526
0.358328
0.688892
0.355359
0.367123
0.384943
0.672959
0.366268
0.452029
0.50361
0.700062
0.358354
0.680349
0.680471
0.68769
0.352584
0.695065
0.683616
0.680346
0.496031
0.739869
0.35537
0.358229
0.686695
0.356877
0.685798
0.70684
0.558133
0.358326
0.462383
0.357395
0.571248
0.558189
0.371235
0.691008
0.687094
0.699929
0.35803
0.395135
0.467065
0.677127
0.358414
0.558222
0.597625
0.680441
0.688847
0.355301
0.681609
0.38757
0.671718
0.593805
0.693305
0.670564
0.596079
0.735899
0.677921
0.690854
0.357183
0.448346
0.356872
0.701838
0.581861
0.575814
0.358326
0.497602
0.694963
0.696914
0.677491
0.357176
0.688073
0.570103
0.573695
0.677734
0.386416
0.357239
0.452512
0.687868
0.680146
0.740213
0.682463
0.46742
0.690035
0.67216
0.680095
0.680457
0.689511
0.691366
0.684854
0.695942
0.694909
0.387509
0.687545
0.689228
0.685875
0.688208
0.688069
0.670715
0.357967
0.398296
0.676615
0.358236
0.419876
0.688311
0.380449
0.5977
0.687086
0.688002
0.69278
0.387738
0.688725
0.385162
0.365566
0.685848
0.70037
0.685182
0.351865
0.690471
0.69225
0.677205
0.688221
0.410302
0.682831
0.693234
0.69197
0.477119
0.698816
0.356874
0.687867
0.3591
0.358131
0.653496
0.516578
0.692863
0.697615
0.683027
0.384935
0.681435
0.501017
0.383562
0.685432
0.522983
0.358249
0.689552
0.409201
0.537772
0.712968
0.680868
0.68493
0.524949
0.593391
0.697133
0.684221
0.670178
0.694541
0.557706
0.688505
0.682145
0.687606
0.390168
0.355189
0.514469
0.689094
0.386687
0.71596
0.688277
0.596229
0.684916
0.594032
0.711172
0.711766
0.35696
0.687974
0.679864
0.595575
0.680025
0.693139
0.687071
0.681858
0.358098
0.376012
0.695047
0.584484
0.597309
0.688454
0.697741
0.689083
0.696978
0.695614
0.657464
0.678765
0.693393
0.375025
0.397371
0.365209
0.402684
0.557611
0.530592
0.597547
0.703776
0.713644
0.385033
0.693479
0.688347
0.351892
0.48548
0.555226
0.688372
0.387777
0.391431
0.38841
0.558207
0.686928
0.479115
0.353354
0.357922
0.405114
0.451274
0.358269
0.690388
0.696419
0.702971
0.357675
0.688343
0.683469
0.597704
0.448126
0.355668
0.685386
0.558388
0.358461
0.686848
0.358324
0.699335
0.387164
0.687739
0.354172
0.686372
0.690597
0.35404
0.574918
0.440868
0.691827
0.39998
0.687395
0.384806
0.566888
0.355614
0.678358
0.358045
0.679645
0.680298
0.597697
0.696047
0.449768
0.688675
0.680092
0.690592
0.675495
0.694929
0.356037
0.533952
0.357982
0.696406
0.4386
0.691879
0.570695
0.698809
0.693107
0.590142
0.693299
0.384901
0.363699
0.374715
0.56328
0.656681
0.697228
0.357679
0.423581
0.686204
0.486857
0.386369
0.666232
0.484925
0.358397
0.397022
0.689495
0.592378
0.686891
0.374356
0.687861
0.687797
0.370946
0.461992
0.687039
0.687925
0.671655
0.541431
0.495675
0.476512
0.357492
0.689534
0.676315
0.582775
0.706284
0.39485
0.597492
0.356047
0.671091
0.691223
0.356817
0.433038
0.677286
0.664388
0.691265
0.694763
0.695981
0.688659
0.691579
0.357742
0.411338
0.358459
0.355157
0.629872
0.627622
0.599018
0.355993
0.358207
0.552443
0.368824
0.691454
0.680617
0.358287
0.459417
0.686998
0.381786
0.698272
0.69545
0.684925
0.682399
0.598938
0.358359
0.352034
0.678454
0.357159
0.535772
0.493797
0.680484
0.687555
0.44288
0.358189
0.558166
0.358086
0.687538
0.696468
0.358407
0.390259
0.356984
0.686846
0.354491
0.558209
0.709217
0.590877
0.38748
0.554536
0.690183
0.690165
0.354669
0.690222
0.676948
0.379955
0.69051
0.688086
0.356516
0.358306
0.685075
0.357789
0.355026
0.689273
0.470971
0.696263
0.713599
0.697911
0.67843
0.692728
0.687315
0.680042
0.355879
0.493596
0.679771
0.697369
0.512435
0.692093
0.467377
0.688015
0.685154
0.594104
0.68679
0.533774
0.521313
0.693902
0.692138
0.681655
0.690477
0.686406
0.557869
0.69008
0.558164
0.690143
0.68549
0.689157
0.558172
0.680072
0.381275
0.686212
0.38423
0.687898
0.687728
0.696635
0.681623
0.702687
0.38728
0.357889
0.458747
0.354948
0.684735
0.354268
0.357098
0.71249
0.390249
0.696909
0.357654
0.688886
0.70176
0.358273
0.486046
0.412479
0.688848
0.370684
0.696525
0.704635
0.358507
0.685397
0.576633
0.426032
0.387711
0.368095
0.70661
0.358335
0.687867
0.594573
0.445702
0.687989
0.691535
0.696159
0.358297
0.597697
0.386184
0.688817
0.683515
0.687721
0.358317
0.696908
0.688412
0.682498
0.504309
0.688804
0.35833
0.357381
0.687666
0.527641
0.693487
0.520982
0.358326
0.505972
0.682641
0.384099
0.377584
0.368222
0.587955
0.565779
0.703467
0.369106
0.670403
0.686299
0.569886
0.558621
0.406075
0.577866
0.358287
0.356418
0.692421
0.357615
0.358203
0.689868
0.689968
0.353248
0.701661
0.359208
0.556216
0.389555
0.685713
0.678327
0.702176
0.680507
0.401208
0.356527
0.386052
0.685854
0.685256
0.592212
0.57712
0.480989
0.450395
0.679823
0.356124
0.696584
0.482275
0.680261
0.715739
0.351545
0.374227
0.35768
0.358129
0.378432
0.677426
0.68641
0.354885
0.691607
0.691717
0.449139
0.384459
0.689858
0.358192
0.700474
0.499487
0.700881
0.691249
0.694214
0.581227
0.379391
0.695113
0.687622
0.689601
0.358241
0.677628
0.596301
0.417646
0.688908
0.683763
0.689985
0.688207
0.691844
0.68736
0.689678
0.687442
0.692218
0.358292
0.696066
0.357782
0.557949
0.687427
0.38651
0.688592
0.67877
0.420354
0.682244
0.35825
0.380611
0.688042
0.676745
0.690274
0.357442
0.688129
0.597701
0.389024
0.356604
0.687687
0.687771
0.485532
0.376993
0.699931
0.689918
0.35834
0.692123
0.690839
0.590831
0.350032
0.358317
0.387372
0.689138
0.412625
0.690213
0.702508
0.679808
0.679809
0.700995
0.357577
0.686179
0.597704
0.690657
0.670414
0.386387
0.355487
0.396142
0.698863
0.702421
0.497484
0.688601
0.39994
0.686637
0.688007
0.386508
0.677072
0.690603
0.673263
0.356684
0.351426
0.404095
0.691758
0.693416
0.5977
0.541655
0.6993
0.358475
0.663352
0.556511
0.697263
0.35629
0.597699
0.423898
0.679882
0.400796
0.695155
0.68826
0.372517
0.690272
0.57147
0.558158
0.686159
0.558196
0.689188
0.524166
0.679876
0.689128
0.68763
0.696006
0.518665
0.554933
0.361749
0.688734
0.394134
0.358323
0.404977
0.377152
0.358299
0.355849
0.69097
0.478948
0.370364
0.705442
0.689275
0.687144
0.486018
0.701739
0.706628
0.680762
0.382753
0.672077
0.687658
0.415217
0.378031
0.356609
0.681794
0.535608
0.358361
0.672601
0.387848
0.56677
0.53231
0.35187
0.520583
0.683213
0.408641
0.687811
0.389726
0.597699
0.48339
0.689297
0.490337
0.694853
0.553169
0.678081
0.558512
0.357528
0.689918
0.690504
0.381638
0.382032
0.686529
0.358041
0.698995
0.357878
0.576065
0.394307
0.687314
0.409471
0.690714
0.358282
0.688073
0.70014
0.691869
0.557721
0.361298
0.383668
0.481556
0.687354
0.711582
0.682563
0.659448
0.419963
0.694846
0.407456
0.685186
0.674496
0.517369
0.44244
0.695742
0.694286
0.384675
0.67059
0.690316
0.695153
0.697558
0.392262
0.66551
0.358345
0.694708
0.41313
0.680382
0.684906
0.690888
0.690799
0.448629
0.689587
0.358244
0.356916
0.687508
0.556809
0.587678
0.695394
0.556382
0.358333
0.701231
0.689028
0.689848
0.382546
0.511776
0.703784
0.35367
0.688136
0.688591
0.689268
0.689078
0.430239
0.544311
0.675127
0.375555
0.685588
0.690177
0.554307
0.687523
0.436635
0.678644
0.700488
0.718556
0.688258
0.351482
0.386541
0.697693
0.68983
0.413832
0.456955
0.405161
0.379927
0.369374
0.362683
0.388737
0.358333
0.697547
0.393326
0.350238
0.705406
0.588821
0.558154
0.49512
0.358292
0.686759
0.544647
0.595477
0.693926
0.486789
0.688673
0.680406
0.597706
0.689186
0.369175
0.703043
0.680218
0.362273
0.357232
0.52049
0.678116
0.597706
0.692463
0.686499
0.698082
0.690481
0.445709
0.698507
0.680134
0.689153
0.358093
0.687511
0.673167
0.441048
0.509832
0.355825
0.385619
0.369543
0.597707
0.71197
0.694047
0.356704
0.490242
0.690697
0.377079
0.705094
0.690353
0.68987
0.719579
0.69797
0.412012
0.386076
0.389203
0.597717
0.410495
0.692039
0.390521
0.687035
0.686669
0.687329
0.399144
0.538525
0.51911
0.700662
0.37334
0.356456
0.688498
0.689048
0.678829
0.68651
0.687925
0.698903
0.358337
0.597699
0.693601
0.552133
0.700411
0.699851
0.698099
0.50709
0.496852
0.689694
0.530795
0.683754
0.358128
0.684797
0.68709
0.477865
0.413599
0.688313
0.557068
0.692807
0.705472
0.358357
0.3563
0.613188
0.554922
0.495343
0.686295
0.687592
0.426947
0.689972
0.613898
0.681856
0.358346
0.597707
0.358354
0.687064
0.691158
0.698673
0.692696
0.639685
0.454467
0.474023
0.69877
0.358133
0.597705
0.440306
0.693858
0.374926
0.693553
0.694057
0.602628
0.358321
0.558197
0.554991
0.355746
0.684892
0.374332
0.689701
0.35838
0.352362
0.383198
0.702257
0.688042