# vtk DataFile Version 1.0
unstructured grid
ascii
DATASET UNSTRUCTURED_GRID
points 13672 float
0.0796578 -0.059106 0
0.00128732 0.00159165 0
0.00227961 -0.00102548 0
0.0791586 -0.0598787 0
-0.0546216 0.01 0
0.000495206 0.025 0
0.0800549 -0.035 0
0.135172 -0.08 0
-0.0546216 -0.0451168 0
0.000495206 -0.0301168 0
0.0800549 -0.0901168 0
0.135172 -0.135117 0
-0.0546216 -0.0451168 -0.00551168
0.000495206 -0.0301168 -0.00551168
0.0800549 -0.0901168 -0.00551168
0.135172 -0.135117 -0.00551168
0.135172 -0.08 -0.00551168
0.0800549 -0.035 -0.00551168
0.000495206 0.025 -0.00551168
-0.0546216 0.01 -0.00551168
0.00128732 0.00159165 -0.00551168
0.00227961 -0.00102548 -0.00551168
0.0791586 -0.0598787 -0.00551168
0.0796578 -0.059106 -0.00551168
0.00165953 -0.000990923 0
0.00119576 -0.000874076 0
0.000866021 -0.000641801 0
0.000645147 -0.000349912 0
0.00052235 -1.7281e-05 0
0.00049972 0.000348016 0
0.000601632 0.000737716 0
0.000861774 0.0011403 0
0.00157235 0.00183217 0
0.00188647 0.00206725 0
0.00222612 0.00230203 0
0.00258713 0.00254351 0
0.00296826 0.00279524 0
0.00337118 0.00305664 0
0.00379785 0.00332658 0
0.00425045 0.00360349 0
0.00473139 0.00388521 0
0.0052432 0.00416895 0
0.0057881 0.00445204 0
0.00636753 0.00473281 0
0.00698281 0.00500961 0
0.00763526 0.00528058 0
0.00832616 0.00554366 0
0.00905691 0.00579603 0
0.00982918 0.00603333 0
0.0106445 0.00625033 0
0.0115038 0.00644128 0
0.0124073 0.00660297 0
0.0133543 0.00673414 0
0.0143444 0.00683382 0
0.0153769 0.00690031 0
0.0164512 0.00693173 0
0.0175666 0.00692547 0
0.0187219 0.00687822 0
0.0199156 0.00678477 0
0.0211454 0.00663864 0
0.0224084 0.00643275 0
0.0237018 0.00616676 0
0.0250249 0.00584739 0
0.026375 0.00547298 0
0.0277479 0.00503752 0
0.0291386 0.00453545 0
0.0305433 0.0039653 0
0.0319572 0.0033256 0
0.0333681 0.00260019 0
0.034775 0.00179799 0
0.0361793 0.000930615 0
0.0375798 3.12222e-06 0
0.0389689 -0.000988429 0
0.0403357 -0.00205109 0
0.041675 -0.00318283 0
0.0429849 -0.00437751 0
0.0442643 -0.00562904 0
0.0455126 -0.00693089 0
0.0467314 -0.00827518 0
0.0479204 -0.00965638 0
0.0490661 -0.0110799 0
0.0501515 -0.0125519 0
0.0511696 -0.0140695 0
0.0521492 -0.0156071 0
0.0531202 -0.0171411 0
0.0540851 -0.0186663 0
0.0550431 -0.0201798 0
0.0559923 -0.0216793 0
0.0569311 -0.0231626 0
0.0578582 -0.0246273 0
0.0587723 -0.0260715 0
0.0596721 -0.027493 0
0.0605563 -0.02889 0
0.0614241 -0.0302609 0
0.0622742 -0.0316042 0
0.063106 -0.0329183 0
0.0639186 -0.034202 0
0.0647113 -0.0354543 0
0.0654835 -0.0366743 0
0.0662345 -0.0378613 0
0.0669642 -0.0390145 0
0.0676726 -0.0401333 0
0.0683597 -0.0412172 0
0.0690246 -0.0422665 0
0.0696662 -0.0432819 0
0.0702841 -0.0442636 0
0.0708793 -0.0452111 0
0.0714538 -0.0461237 0
0.072009 -0.047001 0
0.0725452 -0.0478434 0
0.0730611 -0.0486524 0
0.073556 -0.0494294 0
0.0740291 -0.0501756 0
0.0744812 -0.0508916 0
0.0749138 -0.0515773 0
0.0753285 -0.0522331 0
0.0757266 -0.0528592 0
0.076109 -0.0534564 0
0.0764753 -0.0540264 0
0.0768243 -0.054571 0
0.0771553 -0.0550919 0
0.0774679 -0.0555901 0
0.0777617 -0.0560669 0
0.0780369 -0.056523 0
0.0782958 -0.0569578 0
0.0785421 -0.0573703 0
0.0787786 -0.0577603 0
0.0790073 -0.0581279 0
0.0792295 -0.058474 0
0.0794462 -0.0587995 0
0.0798803 -0.0594162 0
0.0800272 -0.0596588 0
0.0800357 -0.0598891 0
0.0799275 -0.0600784 0
0.0797205 -0.0601773 0
0.0794593 -0.0601051 0
0.0789155 -0.0596491 0
0.0786707 -0.0593963 0
0.0784111 -0.0591319 0
0.0781372 -0.0588542 0
0.0778566 -0.0585548 0
0.0775715 -0.0582308 0
0.0772803 -0.0578828 0
0.0769832 -0.0575099 0
0.0766822 -0.0571097 0
0.0763801 -0.0566796 0
0.0760759 -0.0562196 0
0.0757623 -0.0557337 0
0.0754359 -0.0552232 0
0.0750951 -0.0546879 0
0.0747379 -0.054128 0
0.0743626 -0.0535435 0
0.0739688 -0.0529338 0
0.0735559 -0.0522981 0
0.0731238 -0.0516357 0
0.0726718 -0.050946 0
0.0721991 -0.0502288 0
0.0717046 -0.049484 0
0.0711872 -0.0487117 0
0.0706461 -0.047912 0
0.0700804 -0.0470849 0
0.0694892 -0.0462308 0
0.0688718 -0.0453499 0
0.0682271 -0.0444431 0
0.0675544 -0.043511 0
0.0668527 -0.0425546 0
0.0661215 -0.0415748 0
0.06536 -0.040573 0
0.0645676 -0.0395504 0
0.0637439 -0.0385087 0
0.0628887 -0.0374493 0
0.062002 -0.0363741 0
0.0610838 -0.0352847 0
0.0601345 -0.0341831 0
0.0591547 -0.033071 0
0.0581456 -0.0319502 0
0.0571083 -0.0308224 0
0.0560444 -0.0296893 0
0.0549562 -0.028552 0
0.053845 -0.0274126 0
0.0527113 -0.0262746 0
0.051554 -0.0251427 0
0.0503724 -0.0240222 0
0.0491675 -0.0229164 0
0.047941 -0.0218282 0
0.0466955 -0.0207597 0
0.0454337 -0.0197126 0
0.0441592 -0.0186878 0
0.0428751 -0.0176863 0
0.0415841 -0.0167097 0
0.0402878 -0.0157609 0
0.0389879 -0.0148428 0
0.0376864 -0.0139575 0
0.0363853 -0.013107 0
0.0350871 -0.0122931 0
0.0337942 -0.0115164 0
0.0325095 -0.0107772 0
0.0312357 -0.0100756 0
0.0299758 -0.00941024 0
0.0287337 -0.00877784 0
0.0275126 -0.00817571 0
0.0263139 -0.00760375 0
0.0251376 -0.00706528 0
0.0239829 -0.0065649 0
0.0228537 -0.00609619 0
0.0217522 -0.00565563 0
0.0206795 -0.00524226 0
0.0196364 -0.00485507 0
0.0186233 -0.00449318 0
0.0176408 -0.00415577 0
0.016689 -0.00384204 0
0.0157682 -0.00355115 0
0.0148783 -0.00328218 0
0.0140192 -0.00303468 0
0.0131906 -0.00280795 0
0.0123925 -0.00260016 0
0.0116246 -0.00241012 0
0.0108864 -0.00223769 0
0.0101774 -0.00208212 0
0.00949701 -0.00194206 0
0.00884483 -0.0018163 0
0.0082202 -0.0017039 0
0.00762247 -0.00160391 0
0.00705097 -0.00151528 0
0.006505 -0.00143697 0
0.0059838 -0.00136806 0
0.00548662 -0.00130772 0
0.00501265 -0.00125519 0
0.00456114 -0.00120954 0
0.00413136 -0.00116914 0
0.00372257 -0.00113251 0
0.00333398 -0.00109853 0
0.00296466 -0.00106798 0
0.00261363 -0.0010431 0
-0.052721 -0.0445996 0
-0.0508204 -0.0440823 0
-0.0489199 -0.0435651 0
-0.0470193 -0.0430478 0
-0.0451187 -0.0425306 0
-0.0432181 -0.0420134 0
-0.0413175 -0.0414961 0
-0.039417 -0.0409789 0
-0.0375164 -0.0404616 0
-0.0356158 -0.0399444 0
-0.0337152 -0.0394271 0
-0.0318146 -0.0389099 0
-0.0299141 -0.0383927 0
-0.0280135 -0.0378754 0
-0.0261129 -0.0373582 0
-0.0242123 -0.0368409 0
-0.0223117 -0.0363237 0
-0.0204112 -0.0358065 0
-0.0185106 -0.0352892 0
-0.01661 -0.034772 0
-0.0147094 -0.0342547 0
-0.0128088 -0.0337375 0
-0.0109083 -0.0332202 0
-0.00900769 -0.032703 0
-0.00710711 -0.0321858 0
-0.00520653 -0.0316685 0
-0.00330595 -0.0311513 0
-0.00140537 -0.030634 0
0.00190689 -0.0299614 0
0.00332271 -0.0298498 0
0.00474133 -0.0297825 0
0.00616136 -0.0297597 0
0.0075814 -0.0297814 0
0.00900007 -0.0298477 0
0.010416 -0.0299583 0
0.0118278 -0.0301127 0
0.0132342 -0.0303103 0
0.0146339 -0.0305504 0
0.0160259 -0.0308322 0
0.0174091 -0.0311546 0
0.0187824 -0.0315166 0
0.020145 -0.031917 0
0.0214961 -0.0323546 0
0.0228351 -0.032828 0
0.0241613 -0.0333361 0
0.0254744 -0.0338774 0
0.0267738 -0.0344507 0
0.0280592 -0.0350545 0
0.0293306 -0.0356877 0
0.0305875 -0.0363488 0
0.0318301 -0.0370367 0
0.0330581 -0.0377501 0
0.0342717 -0.0384879 0
0.0354708 -0.0392489 0
0.0366556 -0.0400321 0
0.0378262 -0.0408363 0
0.0389828 -0.0416607 0
0.0401254 -0.0425042 0
0.0412543 -0.0433659 0
0.0423698 -0.0442451 0
0.043472 -0.0451408 0
0.0445612 -0.0460523 0
0.0456375 -0.0469789 0
0.0467013 -0.0479199 0
0.0477529 -0.0488746 0
0.0487923 -0.0498424 0
0.04982 -0.0508227 0
0.0508362 -0.051815 0
0.051841 -0.0528187 0
0.0528348 -0.0538333 0
0.0538178 -0.0548584 0
0.0547903 -0.0558935 0
0.0557524 -0.0569382 0
0.0567045 -0.0579922 0
0.0576467 -0.0590549 0
0.0585792 -0.0601261 0
0.0595024 -0.0612055 0
0.0604163 -0.0622926 0
0.0613212 -0.0633873 0
0.0622174 -0.0644891 0
0.0631049 -0.0655979 0
0.0639841 -0.0667134 0
0.064855 -0.0678353 0
0.0657179 -0.0689633 0
0.0665729 -0.0700974 0
0.0674202 -0.0712372 0
0.06826 -0.0723826 0
0.0690925 -0.0735333 0
0.0699178 -0.0746892 0
0.070736 -0.0758501 0
0.0715473 -0.0770159 0
0.0723518 -0.0781863 0
0.0731498 -0.0793612 0
0.0739412 -0.0805405 0
0.0747264 -0.081724 0
0.0755053 -0.0829116 0
0.0762781 -0.0841033 0
0.0770449 -0.0852987 0
0.0778059 -0.0864979 0
0.0785611 -0.0877007 0
0.0793108 -0.088907 0
0.0814681 -0.0912706 0
0.0828814 -0.0924245 0
0.0842946 -0.0935783 0
0.0857079 -0.0947322 0
0.0871211 -0.095886 0
0.0885344 -0.0970399 0
0.0899476 -0.0981937 0
0.0913609 -0.0993476 0
0.0927741 -0.100501 0
0.0941874 -0.101655 0
0.0956006 -0.102809 0
0.0970139 -0.103963 0
0.0984272 -0.105117 0
0.0998404 -0.106271 0
0.101254 -0.107424 0
0.102667 -0.108578 0
0.10408 -0.109732 0
0.105493 -0.110886 0
0.106907 -0.11204 0
0.10832 -0.113194 0
0.109733 -0.114348 0
0.111146 -0.115501 0
0.11256 -0.116655 0
0.113973 -0.117809 0
0.115386 -0.118963 0
0.116799 -0.120117 0
0.118213 -0.121271 0
0.119626 -0.122424 0
0.121039 -0.123578 0
0.122452 -0.124732 0
0.123866 -0.125886 0
0.125279 -0.12704 0
0.126692 -0.128194 0
0.128105 -0.129348 0
0.129519 -0.130501 0
0.130932 -0.131655 0
0.132345 -0.132809 0
0.133758 -0.133963 0
0.135172 -0.133216 0
0.135172 -0.131316 0
0.135172 -0.129415 0
0.135172 -0.127514 0
0.135172 -0.125614 0
0.135172 -0.123713 0
0.135172 -0.121813 0
0.135172 -0.119912 0
0.135172 -0.118012 0
0.135172 -0.116111 0
0.135172 -0.11421 0
0.135172 -0.11231 0
0.135172 -0.110409 0
0.135172 -0.108509 0
0.135172 -0.106608 0
0.135172 -0.104708 0
0.135172 -0.102807 0
0.135172 -0.100906 0
0.135172 -0.0990058 0
0.135172 -0.0971052 0
0.135172 -0.0952046 0
0.135172 -0.0933041 0
0.135172 -0.0914035 0
0.135172 -0.0895029 0
0.135172 -0.0876023 0
0.135172 -0.0857017 0
0.135172 -0.0838012 0
0.135172 -0.0819006 0
0.133758 -0.0788462 0
0.132345 -0.0776923 0
0.130932 -0.0765385 0
0.129519 -0.0753846 0
0.128105 -0.0742308 0
0.126692 -0.0730769 0
0.125279 -0.0719231 0
0.123866 -0.0707692 0
0.122452 -0.0696154 0
0.121039 -0.0684615 0
0.119626 -0.0673077 0
0.118213 -0.0661538 0
0.116799 -0.065 0
0.115386 -0.0638462 0
0.113973 -0.0626923 0
0.11256 -0.0615385 0
0.111146 -0.0603846 0
0.109733 -0.0592308 0
0.10832 -0.0580769 0
0.106907 -0.0569231 0
0.105493 -0.0557692 0
0.10408 -0.0546154 0
0.102667 -0.0534615 0
0.101254 -0.0523077 0
0.0998404 -0.0511538 0
0.0984272 -0.05 0
0.0970139 -0.0488462 0
0.0956006 -0.0476923 0
[...]
CELL_DATA 13116
SCALARS rho float
LOOKUP_TABLE default
0.5977
0.688528
0.418574
0.689113
0.691259
0.680057
0.357063
0.690754
0.597708
0.692486
0.358041
0.425792
0.691054
0.38664
0.408288
0.679945
0.597701
0.699991
0.686771
0.358371
0.5977
0.44261
0.404616
0.698739
0.5977
0.688356
0.69247
0.425108
0.597699
0.597096
0.670246
0.420426
0.597709
0.573303
0.358315
0.5977
0.680394
0.690215
0.680238
0.688873
0.680375
0.690574
0.597733
0.402493
0.691045
0.689428
0.684522
0.685544
0.433097
0.593137
0.689964
0.595365
0.365469
0.597701
0.597708
0.5977
0.400157
0.698119
0.594307
0.419793
0.388187
0.690421
0.686524
0.680262
0.677781
0.374078
0.68718
0.682337
0.686884
0.680159
0.408058
0.597706
0.44625
0.388419
0.566987
0.386334
0.691264
0.690086
0.357524
0.70418
0.691988
0.687083
0.697305
0.684599
0.688728
0.525026
0.358205
0.65283
0.688512
0.358403
0.419077
0.688579
0.696684
0.689125
0.637971
0.5977
0.5977
0.629586
0.608278
0.597699
0.607981
0.678555
0.68015
0.563304
0.684009
0.422213
0.496992
0.597716
0.415065
0.5977
0.597704
0.686877
0.5977
0.697184
0.703041
0.687918
0.367322
0.514894
0.688564
0.688313
0.681169
0.456481
0.687125
0.418047
0.689828
0.548749
0.360264
0.580955
0.408702
0.591659
0.688856
0.686927
0.559481
0.436846
0.549034
0.593704
0.558231
0.688129
0.592545
0.688454
0.68851
0.684733
0.582927
0.687472
0.686631
0.397646
0.358071
0.687101
0.692158
0.690085
0.586505
0.684436
0.685596
0.3637
0.693621
0.688839
0.410316
0.746339
0.630903
0.620241
0.698805
0.357933
0.69629
0.409737
0.459418
0.691432
0.689304
0.700159
0.357728
0.537554
0.521646
0.558296
0.405262
0.579282
0.687788
0.405223
0.420502
0.445335
0.686304
0.680536
0.358042
0.536018
0.597698
0.680109
0.680518
0.595526
0.363422
0.688674
0.683381
0.564175
0.693688
0.686945
0.680375
0.4188
0.686077
0.680447
0.694345
0.689364
0.688466
0.54439
0.567927
0.5977
0.578576
0.391746
0.690767
0.697089
0.596571
0.5977
0.410677
0.35826
0.384191
0.686625
0.413773
0.358089
0.35847
0.36605
0.507964
0.680455
0.689901
0.519709
0.396713
0.686974
0.597708
0.358074
0.585478
0.692341
0.686095
0.426024
0.687515
0.507376
0.689878
0.42006
0.680341
0.597698
0.582893
0.689084
0.680351
0.437667
0.546974
0.590714
0.555485
0.680479
0.55825
0.68025
0.690661
0.42439
0.688937
0.692933
0.609381
0.357844
0.436316
0.694099
0.688312
0.680053
0.686798
0.5977
0.704981
0.358134
0.449489
0.530736
0.408755
0.68147
0.694556
0.689788
0.356543
0.689537
0.366769
0.521777
0.68414
0.358178
0.687771
0.690518
0.553928
0.697702
0.435782
0.556283
0.695914
0.626225
0.688032
0.358014
0.357148
0.417887
0.594857
0.453207
0.449274
0.487313
0.475199
0.688667
0.370784
0.688991
0.691114
0.359468
0.358361
0.36437
0.545719
0.430014
0.657653
0.677774
0.684092
0.358174
0.684318
0.597496
0.450686
0.419289
0.680435
0.688158
0.68854
0.365719
0.680429
0.561272
0.687202
0.69051
0.689214
0.690653
0.419053
0.687169
0.390788
0.68532
0.692309
0.597704
0.358383
0.48545
0.692645
0.363591
0.686041
0.690438
0.511977
0.713776
0.697655
0.360002
0.68962
0.696727
0.387521
0.689311
0.522919
0.593648
0.691588
0.525674
0.743709
0.356624
0.699699
0.489221
0.680318
0.67861
0.694505
0.424144
0.498997
0.688849
0.362278
0.68997
0.683632
0.532963
0.558166
0.362316
0.430891
0.688576
0.588511
0.682332
0.358042
0.41086
0.688981
0.691193
0.357512
0.690337
0.374767
0.426447
0.688713
0.691353
0.597696
0.358276
0.688013
0.674018
0.67991
0.688961
0.69464
0.588377
0.474533
0.402471
0.35811
0.680023
0.358079
0.597698
0.513245
0.419093
0.495634
0.597697
0.341946
0.360598
0.688968
0.416852
0.696236
0.597699
0.679452
0.59101
0.689254
0.433888
0.357228
0.55178
0.491026
0.689506
0.5977
0.679998
0.597699
0.687249
0.5977
0.686925
0.684133
0.597595
0.692758
0.705528
0.680307
0.534373
0.590908
0.5977
0.435583
0.677399
0.5977
0.364195
0.687553
0.552156
0.419787
0.358269
0.35821
0.360371
0.5977
0.379729
0.41849
0.686427
0.374235
0.597708
0.358241
0.679983
0.687822
0.435148
0.437019
0.688551
0.542966
0.35837
0.360124
0.358251
0.415638
0.357576
0.358289
0.454905
0.524271
0.358431
0.678353
0.463092
0.688439
0.517262
0.417422
0.553027
0.401285
0.358452
0.402489
0.689147
0.530124
0.5977
0.597704
0.371359
0.5977
0.688624
0.5234
0.714582
0.597704
0.597694
0.358005
0.594889
0.515689
0.695538
0.652442
0.418325
0.370088
0.683063
0.494067
0.524743
0.679335
0.496243
0.718007
0.686954
0.358321
0.416892
0.395553
0.577883
0.416135
0.378624
0.405188
0.388738
0.6907
0.690551
0.548949
0.5977
0.551684
0.685579
0.499647
0.376228
0.597711
0.418754
0.685837
0.465344
0.504728
0.557001
0.691026
0.688956
0.591886
0.510381
0.367177
0.590172
0.690662
0.680308
0.588804
0.683995
0.681312
0.358388
0.687298
0.597598
0.592778
0.483459
0.431654
0.695752
0.694975
0.595386
0.692488
0.687582
0.689368
0.699178
0.597671
0.679346
0.358161
0.690812
0.492086
0.416473
0.358066
0.689644
0.696258
0.480622
0.688462
0.5977
0.358441
0.680168
0.687943
0.69305
0.424344
0.373107
0.689513
0.358318
0.358214
0.41025
0.35835
0.696287
0.383524
0.688913
0.461077
0.689373
0.690029
0.686625
0.691248
0.358315
0.358262
0.693779
0.6898
0.693827
0.69094
0.693106
0.545978
0.359167
0.419883
0.680031
0.597069
0.358348
0.542205
0.4189
0.690605
0.688552
0.482256
0.446698
0.688173
0.528299
0.689224
0.5977
0.406607
0.50661
0.696673
0.554682
0.410674
0.688374
0.689435
0.695677
0.377264
0.558201
0.39478
0.576708
0.594236
0.358261
0.505945
0.450523
0.590428
0.41567
0.356572
0.517591
0.680127
0.691314
0.356802
0.446089
0.358262
0.680364
0.450065
0.680476
0.39558
0.597704
0.692484
0.521919
0.408264
0.405824
0.547079
0.420281
0.688336
0.371103
0.385561
0.680333
0.382062
0.686401
0.685726
0.612433
0.358449
0.685044
0.696497
0.694519
0.680123
0.691515
0.688726
0.410311
0.680274
0.521455
0.698592
0.357965
0.6905
0.594838
0.35932
0.675555
0.692905
0.364552
0.647879
0.419397
0.405136
0.686536
0.68915
0.41772
0.4024
0.357226
0.411311
0.690842
0.698868
0.374282
0.358338
0.690094
0.687956
0.597701
0.696485
0.68834
0.358085
0.694478
0.525014
0.68989
0.52133
0.5977
0.54387
0.686932
0.684015
0.597588
0.495815
0.422049
0.689269
0.597699
0.5977
0.696588
0.403494
0.69277
0.693844
0.509478
0.592452
0.695833
0.508713
0.679897
0.590757
0.48359
0.688878
0.609801
0.433247
0.692115
0.417544
0.688198
0.399486
0.6859
0.68612
0.422648
0.680274
0.69635
0.689889
0.5977
0.690055
0.597641
0.472152
0.556679
0.397177
0.387275
0.558157
0.587219
0.688109
0.692009
0.358209
0.472687
0.688266
0.692438
0.688646
0.690598
0.358227
0.706074
0.692822
0.35838
0.409264
0.688703
0.694223
0.688171
0.417111
0.597692
0.436406
0.692105
0.685528
0.680276
0.691672
0.358206
0.700627
0.688749
0.696674
0.689062
0.680357
0.520773
0.693959
0.358273
0.683355
0.692768
0.537655
0.68764
0.680282
0.689927
0.576332
0.536483
0.597696
0.597703
0.358291
0.35833
0.358342
0.358421
0.690973
0.69203
0.68019
0.477925
0.358412
0.686789
0.727532
0.385007
0.475002
0.542381
0.68258
0.689186
0.688716
0.698413
0.358247
0.358291
0.558179
0.419858
0.358128
0.374307
0.67997
0.434806
0.358357
0.597699
0.697845
0.685658
0.680137
0.686822
0.368276
0.392495
0.358223
0.597698
0.530369
0.420367
0.681255
0.700111
0.687682
0.682007
0.419361
0.35835
0.692545
0.358308
0.68035
0.685667
0.658583
0.417605
0.358251
0.687244
0.672834
0.597694
0.38512
0.688993
0.680142
0.597699
0.689792
0.690471
0.558177
0.683714
0.358225
0.685977
0.678658
0.684977
0.692191
0.558187
0.687103
0.558283
0.687724
0.383799
0.402927
0.358257
0.67588
0.596434
0.358352
0.687282
0.690306
0.427043
0.658285
0.438784
0.690563
0.597702
0.436768
0.691522
0.700328
0.358354
0.582163
0.674793
0.399481
0.689225
0.379139
0.420336
0.5977
0.5977
0.552922
0.681155
0.358822
0.69596
0.413992
0.4227
0.685642
0.358284
0.5977
0.419098
0.677076
0.5977
0.557503
0.689004
0.402477
0.388944
0.680812
0.597726
0.688739
0.578182
0.5977
0.680114
0.696741
0.597719
0.5977
0.6861
0.694208
0.687561
0.492041
0.358274
0.580114
0.686129
0.69426
0.514092
0.681268
0.597703
0.5492
0.418596
0.597701
0.679821
0.558303
0.583469
0.679113
0.695492
0.680396
0.687287
0.418366
0.5977
0.541335
0.688999
0.693998
0.474907
0.692025
0.69127
0.409767
0.429685
0.363025
0.558171
0.357969
0.5977
0.692752
0.597705
0.462433
0.68955
0.391812
0.597705
0.680363
0.680219
0.679791
0.680355
0.5977
0.690648
0.597711
0.698112
0.399483
0.680469
0.686446
0.597737
0.559582
0.692689
0.418587
0.404376
0.401251
0.689143
0.358312
0.555462
0.358246
0.690706
0.372061
0.544124
0.408422
0.695637
0.690262
0.5977
0.460534
0.5977
0.680472
0.358312
0.597701
0.690525
0.421416
0.5977
0.645739
0.692447
0.680395
0.419183
0.597715
0.689467
0.681912
0.683678
0.358259
0.532472
0.689203
0.558149
0.558126
0.558189
0.5977
0.687573
0.597699
0.688883
0.358278
0.393123
0.558182
0.691321
0.680167
0.377486
0.680459
0.5977
0.597703
0.401882
0.516038
0.690448
0.687268
0.596919
0.485637
0.680316
0.556253
0.357065
0.5977
0.698319
0.357124
0.417309
0.392931
0.683369
0.452688
0.358138
0.689228
0.580567
0.694312
0.674071
0.357981
0.35837
0.690582
0.404729
0.380312
0.670976
0.433302
0.502744
0.5977
0.691732
0.685284
0.358407
0.44812
0.357995
0.686143
0.424222
0.685643
0.381175
0.68725
0.69091
0.690628
0.684047
0.700797
0.685263
0.688955
0.691278
0.687672
0.380655
0.358255
0.695603
0.680318
0.554081
0.683836
0.597709
0.680337
0.683253
0.433035
0.68805
0.690294
0.695749
0.35792
0.700632
0.441128
0.684718
0.546841
0.701075
0.680827
0.438232
0.690192
0.358157
0.571114
0.687055
0.377694
0.736032
0.558168
0.691046
0.361626
0.686378
0.358419
0.417536
0.419081
0.35842
0.681183
0.408116
0.69159
0.680319
0.489022
0.419003
0.544357
0.597696
0.597703
0.683083
0.358402
0.366242
0.357297
0.406879
0.457543
0.597676
0.687252
0.426756
0.680275
0.692258
0.390464
0.690203
0.709917
0.680359
0.358153
0.56139
0.693262
0.693161
0.689204
0.415977
0.686703
0.692507
0.699631
0.597701
0.680391
0.451538
0.419225
0.684448
0.576864
0.358231
0.683889
0.413042
0.594357
0.592258
0.687941
0.68821
0.419608
0.683662
0.530271
0.357959
0.710274
0.689949
0.693443
0.688852
0.678749
0.417344
0.690707
0.41748
0.552936
0.691371
0.598575
0.689149
0.357858
0.446716
0.692766
0.458841
0.689369
0.5977
0.530935
0.469131
0.688824
0.418999
0.680139
0.689318
0.696808
0.418946
0.406102
0.575664
0.597702
0.597702
0.566441
0.680476
0.683166
0.688948
0.558181
0.689071
0.359727
0.466069
0.689837
0.680369
0.683473
0.535457
0.388559
0.688409
0.401698
0.688452
0.5977
0.469108
0.689323
0.358429
0.690972
0.422123
0.692748
0.432413
0.687193
0.680557
0.42334
0.689632
0.597703
0.410052
0.680232
0.689428
0.59771
0.398692
0.509911
0.567471
0.69622
0.680932
0.475329
0.597654
0.690649
0.6803
0.463701
0.597528
0.687818
0.526966
0.680588
0.686409
0.473299
0.687093
0.640675
0.415666
0.5977
0.358704
0.695291
0.359866
0.421798
0.695648
0.358259
0.358337
0.399052
0.68677
0.687491
0.541137
0.680125
0.506332
0.696728
0.358439
0.687831
0.514567
0.67998
0.684949
0.69663
0.680327
0.583655
0.680558
0.680282
0.42259
0.5977
0.695711
0.5977
0.687754
0.54754
0.551935
0.690805
0.358131
0.597708
0.441246
0.679955
0.379029
0.418404
0.700824
0.688362
0.358313
0.688922
0.700753
0.558197
0.690387
0.581182
0.358261
0.691221
0.35825
0.412173
0.68874
0.69756
0.690599
0.688319
0.417262
0.361409
0.357778
0.687922
0.680219
0.507188
0.691686
0.373337
0.361457
0.390536
0.688715
0.519691
0.690771
0.688148
0.5977
0.689193
0.687038
0.5977
0.689038
0.522655
0.402565
0.358307
0.572287
0.555946
0.380184
0.597613
0.682476
0.692521
0.418331
0.580139
0.683741
0.448285
0.682689
0.679225
0.358146
0.680424
0.692253
0.358289
0.685624
0.376987
0.687946
0.694904
0.70074
0.404331
0.534608
0.721683
0.477625
0.525314
0.689356
0.482345
0.680459
0.687423
0.68742
0.701192
0.479391
0.672324
0.709779
0.683856
0.499123
0.689561
0.424282
0.393959
0.689058
0.68884
0.680387
0.413068
0.683406
0.5977
0.565833
0.368661
0.373955
0.358345
0.688978
0.357073
0.38209
0.429389
0.67807
0.380286
0.473831
0.524947
0.685467
0.358104
0.680369
0.680286
0.688995
0.363658
0.686298
0.593398
0.680232
0.517677
0.597702
0.358915
0.358161
0.686502
0.358336
0.591991
0.691607
0.558067
0.358087
0.486072
0.362627
0.58949
0.558359
0.416019
0.690418
0.686577
0.699971
0.358377
0.414701
0.490994
0.681419
0.358348
0.55821
0.597699
0.680394
0.689509
0.358114
0.627872
0.411356
0.676122
0.5977
0.692512
0.672594
0.5977
0.597271
0.683683
0.690326
0.358255
0.515401
0.378889
0.702005
0.59741
0.601208
0.358055
0.520097
0.695179
0.686194
0.679914
0.358337
0.688866
0.588617
0.591398
0.681127
0.418138
0.35834
0.474555
0.688755
0.680334
0.5977
0.684893
0.490263
0.691004
0.597702
0.680368
0.68023
0.690905
0.690263
0.680257
0.695941
0.693487
0.419468
0.687088
0.688985
0.680468
0.68789
0.689142
0.593681
0.358395
0.428391
0.684258
0.358287
0.482639
0.688936
0.396818
0.5977
0.686679
0.687424
0.696259
0.419856
0.689136
0.419711
0.386621
0.680229
0.686862
0.683747
0.368117
0.689828
0.6801
0.682449
0.687795
0.434386
0.680382
0.69273
0.694337
0.542743
0.699211
0.358266
0.686626
0.383474
0.358391
0.597702
0.538857
0.691645
0.696819
0.680426
0.427148
0.680423
0.545019
0.400712
0.686846
0.543715
0.35834
0.680265
0.437564
0.5584
0.678196
0.684675
0.687802
0.5458
0.597705
0.612629
0.680474
0.591109
0.693352
0.577968
0.688017
0.684511
0.594501
0.416355
0.357678
0.53649
0.688795
0.418265
0.597171
0.688982
0.5977
0.680448
0.5977
0.719607
0.688252
0.358108
0.688781
0.683611
0.5977
0.683932
0.691887
0.688367
0.680207
0.358312
0.391372
0.699228
0.597678
0.5977
0.687917
0.684942
0.683071
0.694906
0.694726
0.5977
0.682781
0.692579
0.39169
0.431477
0.382021
0.457783
0.5564
0.553863
0.597699
0.688843
0.692975
0.41458
0.697526
0.688298
0.371157
0.507548
0.55449
0.687842
0.420551
0.419576
0.410689
0.558197
0.688601
0.550182
0.359569
0.358242
0.430971
0.499871
0.358286
0.690592
0.68527
0.68701
0.358257
0.68729
0.597701
0.5977
0.477719
0.358289
0.686681
0.558588
0.358319
0.680053
0.358274
0.699388
0.418958
0.688881
0.358336
0.687814
0.690361
0.361373
0.592262
0.46198
0.690722
0.432551
0.597704
0.410828
0.588611
0.358663
0.597706
0.35834
0.680232
0.680346
0.5977
0.700141
0.481478
0.68769
0.680473
0.690148
0.5977
0.698318
0.358303
0.587602
0.378607
0.696779
0.467538
0.691387
0.589451
0.698014
0.692208
0.597707
0.693333
0.402054
0.383909
0.391159
0.585027
0.597541
0.687637
0.358195
0.444732
0.683542
0.510097
0.418844
0.593049
0.507273
0.358354
0.427059
0.690225
0.5977
0.597696
0.399189
0.687723
0.688779
0.423703
0.487834
0.688734
0.683317
0.675659
0.562076
0.518175
0.499342
0.361742
0.690763
0.682918
0.597664
0.708918
0.415124
0.597699
0.358365
0.679108
0.690371
0.358314
0.456143
0.684358
0.593839
0.69108
0.693472
0.694919
0.689126
0.691277
0.369926
0.439757
0.381771
0.358168
0.5977
0.656798
0.5977
0.358294
0.358321
0.578653
0.42011
0.683067
0.684512
0.358504
0.481069
0.686689
0.410364
0.62989
0.695208
0.686123
0.680582
0.5977
0.358224
0.358784
0.682145
0.358308
0.56288
0.538542
0.680159
0.689116
0.46678
0.358113
0.558173
0.358295
0.688109
0.696785
0.358156
0.41179
0.369446
0.686315
0.369142
0.558173
0.692868
0.5977
0.422804
0.574942
0.689676
0.689687
0.356811
0.688826
0.685256
0.413595
0.688487
0.687366
0.35787
0.35829
0.686945
0.358275
0.358143
0.687669
0.495338
0.684317
0.724809
0.696535
0.690509
0.691392
0.687082
0.680498
0.357488
0.515401
0.684868
0.695856
0.533432
0.690862
0.489694
0.6877
0.687941
0.597703
0.59245
0.583486
0.543654
0.69794
0.691523
0.683967
0.690497
0.685904
0.556674
0.690222
0.558156
0.69126
0.68731
0.690773
0.558179
0.680525
0.407632
0.687015
0.420388
0.688794
0.687101
0.696265
0.685129
0.703685
0.405971
0.362553
0.480781
0.357032
0.686235
0.358383
0.358105
0.692637
0.418874
0.695895
0.360501
0.68784
0.68694
0.358178
0.509135
0.472904
0.688942
0.396786
0.690431
0.690333
0.365804
0.686686
0.593653
0.491085
0.422781
0.422981
0.711822
0.358281
0.688841
0.5977
0.46781
0.690022
0.68035
0.695337
0.358288
0.5977
0.41271
0.687441
0.68041
0.688067
0.358334
0.698143
0.687984
0.684562
0.527434
0.68878
0.358334
0.358397
0.689081
0.550901
0.693159
0.583282
0.358347
0.527478
0.684825
0.416967
0.402514
0.402729
0.597714
0.59386
0.688576
0.387268
0.5977
0.685734
0.588392
0.590854
0.463033
0.594384
0.358354
0.358425
0.691429
0.358389
0.358461
0.689335
0.690228
0.374067
0.700911
0.371753
0.554274
0.427143
0.687431
0.680378
0.703159
0.680402
0.421059
0.358453
0.41861
0.680314
0.687322
0.597707
0.594598
0.504463
0.476459
0.680295
0.357757
0.6844
0.504739
0.680297
0.685705
0.36056
0.406303
0.358268
0.358165
0.412164
0.683605
0.686927
0.358326
0.68679
0.597603
0.473152
0.402401
0.690566
0.358397
0.685944
0.520941
0.700939
0.59419
0.68629
0.613917
0.395508
0.694673
0.688779
0.689623
0.358371
0.681405
0.597699
0.479697
0.688904
0.694081
0.689973
0.687448
0.691004
0.688928
0.690644
0.680373
0.687467
0.358189
0.696747
0.35823
0.58351
0.689396
0.417878
0.688471
0.68207
0.44022
0.684169
0.358341
0.41808
0.689199
0.680652
0.690381
0.358309
0.687279
0.5977
0.427181
0.358288
0.689847
0.688661
0.507481
0.41347
0.693756
0.690536
0.358369
0.594666
0.690353
0.5977
0.366335
0.358327
0.418636
0.590117
0.434116
0.688838
0.703544
0.680308
0.597704
0.6867
0.358289
0.688299
0.5977
0.690361
0.673285
0.419828
0.357166
0.418248
0.698091
0.690085
0.519196
0.590258
0.450823
0.696362
0.688029
0.40627
0.685711
0.689403
0.597701
0.358527
0.356976
0.459977
0.689064
0.693075
0.5977
0.562287
0.686322
0.358304
0.5977
0.559812
0.697993
0.358894
0.5977
0.444292
0.683632
0.42464
0.697486
0.689182
0.396718
0.688707
0.597715
0.558081
0.662928
0.558188
0.688946
0.549782
0.680258
0.680312
0.68903
0.695079
0.539515
0.558384
0.376872
0.680082
0.415243
0.358149
0.426888
0.40987
0.358306
0.358429
0.69116
0.501665
0.38586
0.679799
0.688977
0.687163
0.551822
0.702492
0.709192
0.680559
0.4236
0.677571
0.687303
0.465587
0.418499
0.358449
0.597701
0.556309
0.358169
0.590013
0.420502
0.597359
0.553047
0.362729
0.54188
0.595062
0.467041
0.688559
0.409009
0.5977
0.505391
0.690651
0.51271
0.678441
0.551106
0.681697
0.593753
0.358336
0.690962
0.690457
0.423024
0.417214
0.680219
0.358215
0.699425
0.358247
0.593173
0.416297
0.687097
0.440903
0.691147
0.358162
0.688416
0.686951
0.691571
0.557213
0.375953
0.411276
0.549203
0.689245
0.691792
0.684484
0.596258
0.441093
0.69282
0.465405
0.686959
0.67914
0.556722
0.468129
0.695467
0.697486
0.410069
0.679215
0.691087
0.693669
0.696677
0.4119
0.597701
0.358136
0.693432
0.436027
0.680349
0.686878
0.691806
0.690728
0.471432
0.688616
0.358269
0.35803
0.687922
0.55582
0.59771
0.698248
0.554565
0.358393
0.700672
0.690033
0.690698
0.417818
0.534436
0.702731
0.358333
0.687698
0.689053
0.688977
0.690522
0.461888
0.569594
0.597706
0.400166
0.68809
0.689762
0.578518
0.688876
0.46368
0.682325
0.700959
0.693647
0.689269
0.356831
0.419241
0.686923
0.688669
0.433095
0.488628
0.432682
0.406805
0.384863
0.409572
0.429828
0.358238
0.689266
0.413979
0.367189
0.693082
0.59771
0.558218
0.517352
0.358041
0.686079
0.568684
0.597699
0.693693
0.50908
0.597707
0.680271
0.5977
0.688094
0.395515
0.688553
0.680353
0.373273
0.358424
0.555974
0.681796
0.5977
0.690699
0.679937
0.694554
0.690107
0.514147
0.688435
0.680373
0.690964
0.358514
0.687199
0.677031
0.508422
0.532024
0.36825
0.409584
0.385482
0.5977
0.678384
0.697265
0.358427
0.513228
0.690277
0.42436
0.690085
0.680165
0.688982
0.691843
0.685917
0.461621
0.410962
0.412469
0.5977
0.432748
0.685572
0.413859
0.686527
0.680302
0.686957
0.452067
0.563177
0.543654
0.686678
0.403175
0.358421
0.689115
0.687944
0.691668
0.680003
0.689971
0.699347
0.358282
0.5977
0.692361
0.572491
0.685767
0.691296
0.697646
0.528588
0.518487
0.690673
0.551599
0.597285
0.358448
0.685966
0.688938
0.545031
0.434817
0.687956
0.578727
0.691573
0.690156
0.358282
0.358382
0.646498
0.597647
0.558944
0.688895
0.689747
0.447325
0.689889
0.650849
0.685301
0.358315
0.5977
0.358278
0.689112
0.690215
0.699147
0.695882
0.664957
0.476145
0.504035
0.697394
0.358289
0.5977
0.461615
0.686548
0.394718
0.639671
0.6928
0.638824
0.358337
0.558194
0.564545
0.358273
0.686042
0.423851
0.690085
0.358361
0.35889
0.403841
0.69009
0.69059
0.485947
0.479088
0.687272
0.691346
0.546643
0.706409
0.358278
0.59771
0.35819
0.700654
0.358422
0.679793
0.68887
0.42385
0.597562
0.3585
0.680278
0.380931