# vtk DataFile Version 1.0
unstructured grid
ascii
DATASET UNSTRUCTURED_GRID
points 13672 float
0.0796578 -0.059106 0
0.00128732 0.00159165 0
0.00227961 -0.00102548 0
0.0791586 -0.0598787 0
-0.0546216 0.01 0
0.000495206 0.025 0
0.0800549 -0.035 0
0.135172 -0.08 0
-0.0546216 -0.0451168 0
0.000495206 -0.0301168 0
0.0800549 -0.0901168 0
0.135172 -0.135117 0
-0.0546216 -0.0451168 -0.00551168
0.000495206 -0.0301168 -0.00551168
0.0800549 -0.0901168 -0.00551168
0.135172 -0.135117 -0.00551168
0.135172 -0.08 -0.00551168
0.0800549 -0.035 -0.00551168
0.000495206 0.025 -0.00551168
-0.0546216 0.01 -0.00551168
0.00128732 0.00159165 -0.00551168
0.00227961 -0.00102548 -0.00551168
0.0791586 -0.0598787 -0.00551168
0.0796578 -0.059106 -0.00551168
0.00165953 -0.000990923 0
0.00119576 -0.000874076 0
0.000866021 -0.000641801 0
0.000645147 -0.000349912 0
0.00052235 -1.7281e-05 0
0.00049972 0.000348016 0
0.000601632 0.000737716 0
0.000861774 0.0011403 0
0.00157235 0.00183217 0
0.00188647 0.00206725 0
0.00222612 0.00230203 0
0.00258713 0.00254351 0
0.00296826 0.00279524 0
0.00337118 0.00305664 0
0.00379785 0.00332658 0
0.00425045 0.00360349 0
0.00473139 0.00388521 0
0.0052432 0.00416895 0
0.0057881 0.00445204 0
0.00636753 0.00473281 0
0.00698281 0.00500961 0
0.00763526 0.00528058 0
0.00832616 0.00554366 0
0.00905691 0.00579603 0
0.00982918 0.00603333 0
0.0106445 0.00625033 0
0.0115038 0.00644128 0
0.0124073 0.00660297 0
0.0133543 0.00673414 0
0.0143444 0.00683382 0
0.0153769 0.00690031 0
0.0164512 0.00693173 0
0.0175666 0.00692547 0
0.0187219 0.00687822 0
0.0199156 0.00678477 0
0.0211454 0.00663864 0
0.0224084 0.00643275 0
0.0237018 0.00616676 0
0.0250249 0.00584739 0
0.026375 0.00547298 0
0.0277479 0.00503752 0
0.0291386 0.00453545 0
0.0305433 0.0039653 0
0.0319572 0.0033256 0
0.0333681 0.00260019 0
0.034775 0.00179799 0
0.0361793 0.000930615 0
0.0375798 3.12222e-06 0
0.0389689 -0.000988429 0
0.0403357 -0.00205109 0
0.041675 -0.00318283 0
0.0429849 -0.00437751 0
0.0442643 -0.00562904 0
0.0455126 -0.00693089 0
0.0467314 -0.00827518 0
0.0479204 -0.00965638 0
0.0490661 -0.0110799 0
0.0501515 -0.0125519 0
0.0511696 -0.0140695 0
0.0521492 -0.0156071 0
0.0531202 -0.0171411 0
0.0540851 -0.0186663 0
0.0550431 -0.0201798 0
0.0559923 -0.0216793 0
0.0569311 -0.0231626 0
0.0578582 -0.0246273 0
0.0587723 -0.0260715 0
0.0596721 -0.027493 0
0.0605563 -0.02889 0
0.0614241 -0.0302609 0
0.0622742 -0.0316042 0
0.063106 -0.0329183 0
0.0639186 -0.034202 0
0.0647113 -0.0354543 0
0.0654835 -0.0366743 0
0.0662345 -0.0378613 0
0.0669642 -0.0390145 0
0.0676726 -0.0401333 0
0.0683597 -0.0412172 0
0.0690246 -0.0422665 0
0.0696662 -0.0432819 0
0.0702841 -0.0442636 0
0.0708793 -0.0452111 0
0.0714538 -0.0461237 0
0.072009 -0.047001 0
0.0725452 -0.0478434 0
0.0730611 -0.0486524 0
0.073556 -0.0494294 0
0.0740291 -0.0501756 0
0.0744812 -0.0508916 0
0.0749138 -0.0515773 0
0.0753285 -0.0522331 0
0.0757266 -0.0528592 0
0.076109 -0.0534564 0
0.0764753 -0.0540264 0
0.0768243 -0.054571 0
0.0771553 -0.0550919 0
0.0774679 -0.0555901 0
0.0777617 -0.0560669 0
0.0780369 -0.056523 0
0.0782958 -0.0569578 0
0.0785421 -0.0573703 0
0.0787786 -0.0577603 0
0.0790073 -0.0581279 0
0.0792295 -0.058474 0
0.0794462 -0.0587995 0
0.0798803 -0.0594162 0
0.0800272 -0.0596588 0
0.0800357 -0.0598891 0
0.0799275 -0.0600784 0
0.0797205 -0.0601773 0
0.0794593 -0.0601051 0
0.0789155 -0.0596491 0
0.0786707 -0.0593963 0
0.0784111 -0.0591319 0
0.0781372 -0.0588542 0
0.0778566 -0.0585548 0
0.0775715 -0.0582308 0
0.0772803 -0.0578828 0
0.0769832 -0.0575099 0
0.0766822 -0.0571097 0
0.0763801 -0.0566796 0
0.0760759 -0.0562196 0
0.0757623 -0.0557337 0
0.0754359 -0.0552232 0
0.0750951 -0.0546879 0
0.0747379 -0.054128 0
0.0743626 -0.0535435 0
0.0739688 -0.0529338 0
0.0735559 -0.0522981 0
0.0731238 -0.0516357 0
0.0726718 -0.050946 0
0.0721991 -0.0502288 0
0.0717046 -0.049484 0
0.0711872 -0.0487117 0
0.0706461 -0.047912 0
0.0700804 -0.0470849 0
0.0694892 -0.0462308 0
0.0688718 -0.0453499 0
0.0682271 -0.0444431 0
0.0675544 -0.043511 0
0.0668527 -0.0425546 0
0.0661215 -0.0415748 0
0.06536 -0.040573 0
0.0645676 -0.0395504 0
0.0637439 -0.0385087 0
0.0628887 -0.0374493 0
0.062002 -0.0363741 0
0.0610838 -0.0352847 0
0.0601345 -0.0341831 0
0.0591547 -0.033071 0
0.0581456 -0.0319502 0
0.0571083 -0.0308224 0
0.0560444 -0.0296893 0
0.0549562 -0.028552 0
0.053845 -0.0274126 0
0.0527113 -0.0262746 0
0.051554 -0.0251427 0
0.0503724 -0.0240222 0
0.0491675 -0.0229164 0
0.047941 -0.0218282 0
0.0466955 -0.0207597 0
0.0454337 -0.0197126 0
0.0441592 -0.0186878 0
0.0428751 -0.0176863 0
0.0415841 -0.0167097 0
0.0402878 -0.0157609 0
0.0389879 -0.0148428 0
0.0376864 -0.0139575 0
0.0363853 -0.013107 0
0.0350871 -0.0122931 0
0.0337942 -0.0115164 0
0.0325095 -0.0107772 0
0.0312357 -0.0100756 0
0.0299758 -0.00941024 0
0.0287337 -0.00877784 0
0.0275126 -0.00817571 0
0.0263139 -0.00760375 0
0.0251376 -0.00706528 0
0.0239829 -0.0065649 0
0.0228537 -0.00609619 0
0.0217522 -0.00565563 0
0.0206795 -0.00524226 0
0.0196364 -0.00485507 0
0.0186233 -0.00449318 0
0.0176408 -0.00415577 0
0.016689 -0.00384204 0
0.0157682 -0.00355115 0
0.0148783 -0.00328218 0
0.0140192 -0.00303468 0
0.0131906 -0.00280795 0
0.0123925 -0.00260016 0
0.0116246 -0.00241012 0
0.0108864 -0.00223769 0
0.0101774 -0.00208212 0
0.00949701 -0.00194206 0
0.00884483 -0.0018163 0
0.0082202 -0.0017039 0
0.00762247 -0.00160391 0
0.00705097 -0.00151528 0
0.006505 -0.00143697 0
0.0059838 -0.00136806 0
0.00548662 -0.00130772 0
0.00501265 -0.00125519 0
0.00456114 -0.00120954 0
0.00413136 -0.00116914 0
0.00372257 -0.00113251 0
0.00333398 -0.00109853 0
0.00296466 -0.00106798 0
0.00261363 -0.0010431 0
-0.052721 -0.0445996 0
-0.0508204 -0.0440823 0
-0.0489199 -0.0435651 0
-0.0470193 -0.0430478 0
-0.0451187 -0.0425306 0
-0.0432181 -0.0420134 0
-0.0413175 -0.0414961 0
-0.039417 -0.0409789 0
-0.0375164 -0.0404616 0
-0.0356158 -0.0399444 0
-0.0337152 -0.0394271 0
-0.0318146 -0.0389099 0
-0.0299141 -0.0383927 0
-0.0280135 -0.0378754 0
-0.0261129 -0.0373582 0
-0.0242123 -0.0368409 0
-0.0223117 -0.0363237 0
-0.0204112 -0.0358065 0
-0.0185106 -0.0352892 0
-0.01661 -0.034772 0
-0.0147094 -0.0342547 0
-0.0128088 -0.0337375 0
-0.0109083 -0.0332202 0
-0.00900769 -0.032703 0
-0.00710711 -0.0321858 0
-0.00520653 -0.0316685 0
-0.00330595 -0.0311513 0
-0.00140537 -0.030634 0
0.00190689 -0.0299614 0
0.00332271 -0.0298498 0
0.00474133 -0.0297825 0
0.00616136 -0.0297597 0
0.0075814 -0.0297814 0
0.00900007 -0.0298477 0
0.010416 -0.0299583 0
0.0118278 -0.0301127 0
0.0132342 -0.0303103 0
0.0146339 -0.0305504 0
0.0160259 -0.0308322 0
0.0174091 -0.0311546 0
0.0187824 -0.0315166 0
0.020145 -0.031917 0
0.0214961 -0.0323546 0
0.0228351 -0.032828 0
0.0241613 -0.0333361 0
0.0254744 -0.0338774 0
0.0267738 -0.0344507 0
0.0280592 -0.0350545 0
0.0293306 -0.0356877 0
0.0305875 -0.0363488 0
0.0318301 -0.0370367 0
0.0330581 -0.0377501 0
0.0342717 -0.0384879 0
0.0354708 -0.0392489 0
0.0366556 -0.0400321 0
0.0378262 -0.0408363 0
0.0389828 -0.0416607 0
0.0401254 -0.0425042 0
0.0412543 -0.0433659 0
0.0423698 -0.0442451 0
0.043472 -0.0451408 0
0.0445612 -0.0460523 0
0.0456375 -0.0469789 0
0.0467013 -0.0479199 0
0.0477529 -0.0488746 0
0.0487923 -0.0498424 0
0.04982 -0.0508227 0
0.0508362 -0.051815 0
0.051841 -0.0528187 0
0.0528348 -0.0538333 0
0.0538178 -0.0548584 0
0.0547903 -0.0558935 0
0.0557524 -0.0569382 0
0.0567045 -0.0579922 0
0.0576467 -0.0590549 0
0.0585792 -0.0601261 0
0.0595024 -0.0612055 0
0.0604163 -0.0622926 0
0.0613212 -0.0633873 0
0.0622174 -0.0644891 0
0.0631049 -0.0655979 0
0.0639841 -0.0667134 0
0.064855 -0.0678353 0
0.0657179 -0.0689633 0
0.0665729 -0.0700974 0
0.0674202 -0.0712372 0
0.06826 -0.0723826 0
0.0690925 -0.0735333 0
0.0699178 -0.0746892 0
0.070736 -0.0758501 0
0.0715473 -0.0770159 0
0.0723518 -0.0781863 0
0.0731498 -0.0793612 0
0.0739412 -0.0805405 0
0.0747264 -0.081724 0
0.0755053 -0.0829116 0
0.0762781 -0.0841033 0
0.0770449 -0.0852987 0
0.0778059 -0.0864979 0
0.0785611 -0.0877007 0
0.0793108 -0.088907 0
0.0814681 -0.0912706 0
0.0828814 -0.0924245 0
0.0842946 -0.0935783 0
0.0857079 -0.0947322 0
0.0871211 -0.095886 0
0.0885344 -0.0970399 0
0.0899476 -0.0981937 0
0.0913609 -0.0993476 0
0.0927741 -0.100501 0
0.0941874 -0.101655 0
0.0956006 -0.102809 0
0.0970139 -0.103963 0
0.0984272 -0.105117 0
0.0998404 -0.106271 0
0.101254 -0.107424 0
0.102667 -0.108578 0
0.10408 -0.109732 0
0.105493 -0.110886 0
0.106907 -0.11204 0
0.10832 -0.113194 0
0.109733 -0.114348 0
0.111146 -0.115501 0
0.11256 -0.116655 0
0.113973 -0.117809 0
0.115386 -0.118963 0
0.116799 -0.120117 0
0.118213 -0.121271 0
0.119626 -0.122424 0
0.121039 -0.123578 0
0.122452 -0.124732 0
0.123866 -0.125886 0
0.125279 -0.12704 0
0.126692 -0.128194 0
0.128105 -0.129348 0
0.129519 -0.130501 0
0.130932 -0.131655 0
0.132345 -0.132809 0
0.133758 -0.133963 0
0.135172 -0.133216 0
0.135172 -0.131316 0
0.135172 -0.129415 0
0.135172 -0.127514 0
0.135172 -0.125614 0
0.135172 -0.123713 0
0.135172 -0.121813 0
0.135172 -0.119912 0
0.135172 -0.118012 0
0.135172 -0.116111 0
0.135172 -0.11421 0
0.135172 -0.11231 0
0.135172 -0.110409 0
0.135172 -0.108509 0
0.135172 -0.106608 0
0.135172 -0.104708 0
0.135172 -0.102807 0
0.135172 -0.100906 0
0.135172 -0.0990058 0
0.135172 -0.0971052 0
0.135172 -0.0952046 0
0.135172 -0.0933041 0
0.135172 -0.0914035 0
0.135172 -0.0895029 0
0.135172 -0.0876023 0
0.135172 -0.0857017 0
0.135172 -0.0838012 0
0.135172 -0.0819006 0
0.133758 -0.0788462 0
0.132345 -0.0776923 0
0.130932 -0.0765385 0
0.129519 -0.0753846 0
0.128105 -0.0742308 0
0.126692 -0.0730769 0
0.125279 -0.0719231 0
0.123866 -0.0707692 0
0.122452 -0.0696154 0
0.121039 -0.0684615 0
0.119626 -0.0673077 0
0.118213 -0.0661538 0
0.116799 -0.065 0
0.115386 -0.0638462 0
0.113973 -0.0626923 0
0.11256 -0.0615385 0
0.111146 -0.0603846 0
0.109733 -0.0592308 0
0.10832 -0.0580769 0
0.106907 -0.0569231 0
0.105493 -0.0557692 0
0.10408 -0.0546154 0
0.102667 -0.0534615 0
0.101254 -0.0523077 0
0.0998404 -0.0511538 0
0.0984272 -0.05 0
0.0970139 -0.0488462 0
0.0956006 -0.0476923 0
[...]
CELL_DATA 13116
SCALARS rho float
LOOKUP_TABLE default
0.5977
0.695118
0.444474
0.687988
0.690978
0.68039
0.359679
0.69084
0.597703
0.692597
0.358022
0.445413
0.691047
0.398849
0.419395
0.680335
0.5977
0.700499
0.679756
0.358296
0.5977
0.455289
0.419934
0.700239
0.5977
0.689625
0.692467
0.450078
0.5977
0.5977
0.675842
0.435304
0.597699
0.588475
0.362047
0.5977
0.681442
0.692811
0.680291
0.689809
0.680232
0.690755
0.597697
0.423496
0.689217
0.680055
0.687512
0.684967
0.445359
0.597703
0.689988
0.597721
0.373697
0.5977
0.597699
0.5977
0.420136
0.697176
0.597712
0.431819
0.400786
0.690448
0.690292
0.680268
0.679416
0.386309
0.687205
0.673348
0.686735
0.680215
0.419113
0.597699
0.459428
0.403836
0.580645
0.394835
0.691364
0.688953
0.358009
0.70582
0.685451
0.689359
0.697126
0.685454
0.690314
0.537739
0.364768
0.597221
0.689416
0.358406
0.439599
0.695555
0.697085
0.690562
0.597467
0.5977
0.5977
0.647409
0.626589
0.5977
0.597708
0.680529
0.680231
0.581295
0.685487
0.436072
0.510338
0.597698
0.435744
0.5977
0.597699
0.687089
0.5977
0.688652
0.705975
0.688109
0.376946
0.528778
0.687706
0.68871
0.660254
0.470619
0.686984
0.439565
0.690652
0.563184
0.367929
0.591728
0.428675
0.597632
0.687913
0.686246
0.571626
0.449149
0.561843
0.5977
0.558154
0.687777
0.597706
0.68876
0.694107
0.687671
0.59331
0.696632
0.692747
0.410289
0.361166
0.68903
0.691367
0.690663
0.594795
0.685097
0.684196
0.368449
0.692236
0.690559
0.426649
0.597299
0.647679
0.59771
0.69915
0.358009
0.695351
0.426782
0.475982
0.69031
0.690224
0.702107
0.36104
0.550443
0.534819
0.558117
0.416298
0.590999
0.687871
0.420046
0.431979
0.458368
0.68652
0.680327
0.358105
0.549869
0.5977
0.678359
0.68032
0.597712
0.368039
0.682807
0.685613
0.578442
0.631844
0.688682
0.680496
0.437066
0.686637
0.680481
0.69412
0.68405
0.689284
0.580987
0.586174
0.5977
0.589871
0.406605
0.689858
0.684322
0.597718
0.5977
0.422755
0.358343
0.392405
0.68061
0.430933
0.358444
0.358456
0.37153
0.522053
0.680269
0.690653
0.532575
0.415817
0.687247
0.597699
0.358131
0.59381
0.691323
0.692678
0.450794
0.687562
0.520527
0.690856
0.435744
0.680295
0.597703
0.604261
0.689821
0.68052
0.450981
0.561643
0.597703
0.561649
0.68038
0.558183
0.680262
0.691017
0.436067
0.688661
0.692603
0.629086
0.358279
0.448687
0.679472
0.687565
0.680208
0.686082
0.5977
0.696314
0.358086
0.463793
0.548108
0.420751
0.683993
0.694277
0.697485
0.359064
0.691017
0.376641
0.534691
0.685896
0.358465
0.689631
0.690005
0.55235
0.696835
0.44891
0.554774
0.690939
0.644812
0.687661
0.358268
0.361635
0.435902
0.5977
0.4672
0.462153
0.500956
0.4887
0.692117
0.37969
0.6897
0.690563
0.362268
0.358409
0.373147
0.559444
0.459494
0.596935
0.686568
0.686845
0.358256
0.680108
0.597707
0.466618
0.431175
0.68048
0.68745
0.681133
0.371112
0.680498
0.577817
0.685987
0.690475
0.69021
0.690446
0.437693
0.687277
0.401531
0.679932
0.692227
0.5977
0.358156
0.499212
0.692334
0.373
0.688761
0.690513
0.531995
0.71806
0.697401
0.366423
0.691212
0.696731
0.39844
0.688447
0.535817
0.597667
0.692802
0.538297
0.593578
0.35909
0.699473
0.503465
0.680221
0.68004
0.694991
0.448108
0.512441
0.690554
0.366423
0.689145
0.686397
0.54687
0.558252
0.36649
0.443124
0.687289
0.595828
0.67788
0.364062
0.427694
0.688955
0.690627
0.35943
0.68965
0.385879
0.440474
0.688665
0.692388
0.5977
0.358306
0.687768
0.678116
0.680301
0.691091
0.692972
0.595943
0.5122
0.413999
0.35815
0.680356
0.358093
0.5977
0.531228
0.438027
0.509066
0.5977
0.384119
0.36382
0.690822
0.44042
0.695378
0.5977
0.680432
0.597703
0.689085
0.446315
0.360927
0.583646
0.51462
0.688092
0.5977
0.680156
0.5977
0.693821
0.5977
0.689251
0.592579
0.5977
0.691838
0.706917
0.680466
0.5519
0.59771
0.5977
0.447884
0.682602
0.5977
0.372305
0.687748
0.550246
0.438451
0.358237
0.358326
0.363354
0.5977
0.388578
0.436592
0.686618
0.38713
0.597701
0.358122
0.680402
0.685479
0.465669
0.449327
0.68724
0.556548
0.358371
0.36298
0.358404
0.436083
0.361171
0.35824
0.468348
0.537207
0.358349
0.680569
0.494803
0.689855
0.556902
0.441784
0.56489
0.413832
0.358424
0.415236
0.689763
0.543349
0.5977
0.597699
0.383391
0.5977
0.689622
0.53618
0.709225
0.5977
0.5977
0.360594
0.613553
0.529438
0.693532
0.664698
0.437635
0.378604
0.684916
0.519925
0.537436
0.680292
0.509588
0.597529
0.6917
0.358387
0.42814
0.406003
0.590062
0.427823
0.38869
0.416181
0.399331
0.689263
0.689988
0.562552
0.5977
0.564534
0.686208
0.513587
0.384128
0.597701
0.43833
0.685661
0.482904
0.518158
0.569264
0.691098
0.690151
0.597371
0.532476
0.375194
0.596739
0.690649
0.680295
0.595927
0.68601
0.684125
0.358409
0.684875
0.597706
0.597701
0.49715
0.461737
0.686931
0.694721
0.597701
0.691986
0.688906
0.690072
0.698901
0.5977
0.680378
0.358359
0.691691
0.506617
0.428777
0.358198
0.688862
0.682278
0.494229
0.690233
0.5977
0.358178
0.680567
0.687231
0.691805
0.449033
0.380534
0.6891
0.35846
0.358292
0.423083
0.358435
0.684603
0.39402
0.687913
0.491604
0.695915
0.690038
0.686667
0.691048
0.35843
0.358338
0.682673
0.690709
0.680318
0.689493
0.692524
0.558004
0.364051
0.440299
0.680487
0.59771
0.358242
0.555628
0.438038
0.691629
0.689148
0.49587
0.459636
0.690337
0.54084
0.691321
0.5977
0.425845
0.519787
0.679234
0.557734
0.428283
0.689979
0.69027
0.680798
0.384928
0.557963
0.413
0.594675
0.597701
0.358296
0.520093
0.463496
0.609015
0.436946
0.35849
0.531587
0.68059
0.689248
0.358178
0.460386
0.358333
0.680503
0.46351
0.680322
0.408115
0.597699
0.691641
0.560387
0.424892
0.421571
0.559094
0.441162
0.689901
0.377735
0.39459
0.680339
0.391591
0.679896
0.688631
0.633027
0.358294
0.68579
0.695607
0.694209
0.680478
0.692404
0.688656
0.423909
0.680222
0.534296
0.687104
0.358304
0.690741
0.597715
0.364264
0.678551
0.691847
0.369907
0.59726
0.438978
0.415987
0.685162
0.689795
0.438393
0.415245
0.358032
0.425018
0.692025
0.700701
0.381564
0.358335
0.689182
0.688129
0.5977
0.695614
0.6866
0.35809
0.694678
0.538188
0.689855
0.535762
0.5977
0.55643
0.687449
0.677425
0.597706
0.509727
0.445185
0.68944
0.5977
0.5977
0.695636
0.415171
0.688577
0.692415
0.523232
0.597718
0.695343
0.526134
0.680154
0.597704
0.497651
0.688913
0.59768
0.451501
0.688666
0.435338
0.6895
0.41234
0.679799
0.689852
0.445091
0.680229
0.695478
0.689529
0.5977
0.685695
0.597705
0.485943
0.573107
0.42162
0.401956
0.558203
0.594965
0.687462
0.690993
0.358159
0.488157
0.686426
0.691327
0.687404
0.690167
0.358219
0.707719
0.692575
0.358307
0.428906
0.68779
0.679604
0.690394
0.430838
0.597702
0.466977
0.688713
0.688368
0.680416
0.695204
0.358385
0.683177
0.68966
0.696036
0.689838
0.680493
0.533649
0.692617
0.358359
0.687429
0.692557
0.550624
0.693053
0.680356
0.690096
0.593385
0.552013
0.597703
0.5977
0.358462
0.358335
0.359089
0.358336
0.6975
0.687398
0.680488
0.491535
0.358289
0.686403
0.590204
0.395767
0.490208
0.555426
0.679304
0.686522
0.691017
0.698254
0.35833
0.358415
0.558225
0.440065
0.358432
0.381364
0.680524
0.46471
0.358201
0.5977
0.683218
0.686241
0.680341
0.679818
0.378321
0.402656
0.358496
0.5977
0.543535
0.437091
0.676539
0.699941
0.689477
0.680296
0.433625
0.358341
0.692336
0.358351
0.680476
0.689291
0.669713
0.438118
0.358363
0.688718
0.677359
0.5977
0.395826
0.690875
0.680382
0.5977
0.690642
0.690334
0.558134
0.686132
0.358187
0.679669
0.679894
0.694146
0.689347
0.558215
0.687156
0.557512
0.687311
0.392722
0.413235
0.35834
0.679017
0.597714
0.358447
0.686117
0.689445
0.44504
0.596244
0.470588
0.617066
0.597699
0.449533
0.690565
0.700271
0.358228
0.591267
0.678396
0.417077
0.690799
0.391633
0.433847
0.5977
0.5977
0.564843
0.68011
0.360355
0.694708
0.425029
0.437898
0.679761
0.358292
0.5977
0.43766
0.592502
0.5977
0.556905
0.689979
0.413791
0.398268
0.684838
0.597696
0.687491
0.591961
0.5977
0.680494
0.696479
0.597697
0.5977
0.686467
0.694132
0.68736
0.506001
0.358288
0.589773
0.686586
0.694678
0.529876
0.680217
0.5977
0.579544
0.438233
0.5977
0.678993
0.558043
0.602862
0.681808
0.689758
0.680489
0.679659
0.435024
0.5977
0.554541
0.689671
0.681077
0.488468
0.692995
0.690364
0.420464
0.442562
0.371651
0.558219
0.358025
0.5977
0.692032
0.5977
0.476564
0.692402
0.405902
0.597701
0.68022
0.6805
0.669853
0.680525
0.5977
0.683861
0.5977
0.690502
0.414884
0.680252
0.686809
0.597695
0.559686
0.689006
0.436912
0.415897
0.419709
0.690274
0.358254
0.553811
0.358577
0.690806
0.380806
0.55656
0.422261
0.693659
0.6898
0.5977
0.47646
0.5977
0.680207
0.358239
0.5977
0.690143
0.437281
0.5977
0.66073
0.691549
0.680476
0.438449
0.597698
0.68825
0.680249
0.687925
0.358374
0.547837
0.691646
0.558215
0.560835
0.558287
0.5977
0.686579
0.5977
0.689122
0.358376
0.407721
0.558241
0.690979
0.680605
0.390372
0.680319
0.5977
0.5977
0.411628
0.529003
0.689931
0.687597
0.597709
0.520085
0.680281
0.557772
0.359149
0.5977
0.697527
0.359394
0.440006
0.403677
0.686503
0.466099
0.358338
0.691277
0.593748
0.694401
0.591428
0.361899
0.362504
0.689636
0.415053
0.389152
0.676477
0.449048
0.516828
0.5977
0.692563
0.685883
0.358286
0.482833
0.357931
0.688885
0.438373
0.686096
0.390316
0.68627
0.691624
0.691573
0.686292
0.683404
0.688083
0.685973
0.690843
0.686689
0.390854
0.358184
0.697248
0.680421
0.565862
0.686582
0.597701
0.680351
0.694561
0.462877
0.688296
0.690414
0.694268
0.359014
0.682849
0.471101
0.685294
0.558849
0.704529
0.680371
0.450971
0.688394
0.358387
0.586794
0.690844
0.385203
0.588253
0.55825
0.691679
0.365458
0.686482
0.35828
0.438198
0.438092
0.358416
0.686621
0.419391
0.683493
0.680254
0.521949
0.43751
0.556528
0.597703
0.5977
0.687586
0.358257
0.376658
0.358629
0.420542
0.474049
0.5977
0.688802
0.4527
0.680591
0.691362
0.401074
0.690418
0.594501
0.680289
0.358085
0.572216
0.685457
0.691739
0.689907
0.427586
0.686477
0.691512
0.683545
0.5977
0.680582
0.464469
0.438073
0.684907
0.586989
0.358345
0.679886
0.428738
0.5977
0.597702
0.689235
0.689988
0.438813
0.68656
0.547935
0.358994
0.715176
0.689472
0.693101
0.688415
0.674785
0.438278
0.691395
0.42945
0.564728
0.690333
0.616446
0.687909
0.358283
0.46303
0.692515
0.472604
0.688828
0.5977
0.544483
0.483068
0.688891
0.436951
0.680296
0.688594
0.679916
0.437145
0.416628
0.587279
0.597702
0.5977
0.58005
0.680203
0.687351
0.689691
0.558202
0.68703
0.365631
0.479907
0.689056
0.680513
0.687819
0.548286
0.403105
0.682446
0.412659
0.688256
0.5977
0.50604
0.687861
0.358352
0.691593
0.448225
0.69269
0.445366
0.685095
0.680341
0.443871
0.690722
0.5977
0.441395
0.680344
0.680227
0.597699
0.411055
0.525537
0.581577
0.695457
0.683927
0.495148
0.597705
0.688834
0.68039
0.477725
0.5977
0.692517
0.539595
0.68018
0.679745
0.486913
0.68623
0.655546
0.440445
0.5977
0.360007
0.660614
0.362522
0.435197
0.695144
0.358216
0.358338
0.410129
0.687404
0.690231
0.559049
0.680291
0.521365
0.679294
0.358313
0.691501
0.531906
0.680526
0.685359
0.678201
0.680194
0.592426
0.680292
0.6802
0.448547
0.5977
0.677425
0.5977
0.686429
0.559582
0.569295
0.691244
0.358272
0.597701
0.473839
0.680156
0.389318
0.436412
0.700693
0.682425
0.358388
0.689124
0.701023
0.558219
0.690085
0.59527
0.358174
0.69053
0.358462
0.429439
0.69003
0.697341
0.69074
0.689908
0.432226
0.365086
0.357897
0.693919
0.680191
0.522507
0.692621
0.385114
0.365197
0.399421
0.689721
0.533909
0.691304
0.686949
0.5977
0.689909
0.68644
0.5977
0.697757
0.535489
0.435981
0.35837
0.586837
0.566055
0.393254
0.5977
0.685603
0.686635
0.437382
0.595718
0.687836
0.468839
0.687184
0.685539
0.358471
0.680433
0.698098
0.358136
0.685666
0.385545
0.687442
0.695206
0.683551
0.415558
0.547055
0.596305
0.491246
0.538074
0.690331
0.495901
0.680426
0.687255
0.689392
0.702196
0.517982
0.677148
0.713455
0.680053
0.512532
0.689243
0.435878
0.405933
0.691041
0.688271
0.680293
0.438935
0.680214
0.5977
0.578702
0.379673
0.384737
0.358419
0.689325
0.358415
0.39153
0.446628
0.682575
0.389284
0.487356
0.537694
0.685986
0.358149
0.680163
0.680457
0.689847
0.368375
0.685648
0.597702
0.680523
0.530622
0.5977
0.362738
0.358252
0.684983
0.358405
0.597702
0.688162
0.557901
0.358258
0.499915
0.367246
0.596331
0.558068
0.441756
0.693226
0.687406
0.701051
0.358261
0.426546
0.504937
0.683986
0.358217
0.558223
0.5977
0.680476
0.691776
0.358269
0.597613
0.425281
0.680809
0.5977
0.691836
0.613748
0.5977
0.597699
0.688309
0.689148
0.358454
0.551821
0.393158
0.704853
0.597708
0.616553
0.358264
0.533723
0.693203
0.685594
0.680409
0.358393
0.68968
0.595817
0.597239
0.684476
0.438567
0.358402
0.488121
0.689153
0.680294
0.5977
0.686174
0.50381
0.691873
0.5977
0.680221
0.680601
0.69124
0.690393
0.68044
0.694343
0.69286
0.4391
0.686619
0.688675
0.680413
0.687019
0.688748
0.5977
0.35826
0.443596
0.693514
0.358315
0.520122
0.690095
0.407065
0.5977
0.686431
0.692438
0.692294
0.438678
0.690138
0.438882
0.400065
0.680411
0.686121
0.680151
0.374105
0.689473
0.680174
0.687239
0.680123
0.446551
0.680537
0.692503
0.697033
0.568097
0.69865
0.358151
0.686285
0.391601
0.358307
0.5977
0.552157
0.690607
0.695846
0.680431
0.440509
0.680585
0.563178
0.411361
0.689
0.555827
0.358399
0.680236
0.453213
0.569946
0.599881
0.688117
0.689619
0.557874
0.597699
0.597695
0.680306
0.597701
0.693093
0.587987
0.688903
0.686229
0.597701
0.430191
0.358024
0.549656
0.688431
0.436583
0.597706
0.689398
0.5977
0.680283
0.5977
0.656868
0.680004
0.358084
0.688955
0.68604
0.5977
0.686255
0.691384
0.68996
0.680453
0.358249
0.400972
0.684224
0.597704
0.5977
0.687793
0.685195
0.68009
0.694861
0.695082
0.5977
0.6867
0.692397
0.402005
0.450194
0.392575
0.493183
0.555325
0.567653
0.5977
0.687435
0.685212
0.432768
0.689158
0.687025
0.37819
0.520979
0.556716
0.687691
0.441702
0.433411
0.42371
0.558203
0.69005
0.584932
0.365255
0.358488
0.445382
0.516409
0.358307
0.691657
0.685215
0.685901
0.358665
0.692384
0.5977
0.5977
0.492077
0.358301
0.689129
0.558902
0.358131
0.680424
0.358133
0.699523
0.438463
0.689943
0.35872
0.68975
0.690412
0.365002
0.597487
0.475258
0.690501
0.449329
0.5977
0.425826
0.597023
0.361972
0.5977
0.358271
0.680139
0.680495
0.5977
0.685581
0.496074
0.691398
0.68038
0.689567
0.5977
0.678146
0.35828
0.597693
0.392086
0.696181
0.483538
0.69041
0.596433
0.697773
0.69122
0.597699
0.692008
0.412747
0.396806
0.401317
0.594742
0.5977
0.684784
0.358218
0.457384
0.6798
0.523596
0.436253
0.597701
0.521054
0.358195
0.441974
0.690592
0.5977
0.5977
0.414882
0.690588
0.689565
0.439432
0.502758
0.689637
0.679861
0.678559
0.573439
0.531258
0.512798
0.365656
0.69194
0.688232
0.597706
0.703479
0.427272
0.5977
0.35829
0.680016
0.689601
0.358291
0.469796
0.69076
0.5977
0.690358
0.692972
0.694812
0.689963
0.690982
0.376264
0.452317
0.396861
0.358344
0.5977
0.667009
0.5977
0.358323
0.358285
0.592708
0.440463
0.68013
0.688145
0.358459
0.494724
0.686519
0.428321
0.597526
0.693358
0.688911
0.680388
0.5977
0.358272
0.360478
0.686072
0.358319
0.579119
0.556487
0.680531
0.689943
0.480683
0.358439
0.558181
0.358237
0.688222
0.696559
0.35822
0.422653
0.378009
0.686349
0.379038
0.55824
0.690644
0.5977
0.437918
0.585327
0.689278
0.692252
0.358288
0.692193
0.695965
0.435454
0.687538
0.688213
0.358052
0.358288
0.688409
0.358221
0.358338
0.692473
0.509527
0.681497
0.622586
0.697545
0.687506
0.69095
0.686869
0.680349
0.357939
0.528365
0.691621
0.684887
0.545913
0.690608
0.503696
0.687165
0.689982
0.5977
0.597702
0.597397
0.556965
0.686679
0.690538
0.686431
0.6903
0.683805
0.555349
0.690334
0.558219
0.692123
0.689366
0.691155
0.558481
0.68028
0.420692
0.689358
0.445646
0.688975
0.686779
0.694467
0.687886
0.703579
0.416404
0.36687
0.494343
0.357952
0.688831
0.358294
0.358215
0.687287
0.432941
0.694381
0.363673
0.69168
0.686542
0.3582
0.522617
0.510114
0.688767
0.414061
0.684003
0.688406
0.371489
0.68902
0.597697
0.53033
0.446565
0.440039
0.725908
0.358277
0.689187
0.5977
0.481327
0.686138
0.680166
0.695016
0.358206
0.5977
0.427926
0.692871
0.680478
0.688217
0.358256
0.684315
0.687609
0.686569
0.541563
0.688402
0.358199
0.3584
0.690027
0.564755
0.692065
0.597549
0.358256
0.540294
0.686913
0.439083
0.422263
0.414897
0.597698
0.612941
0.687234
0.398567
0.5977
0.685343
0.595667
0.597722
0.499815
0.597706
0.358305
0.358397
0.687703
0.358398
0.358514
0.690489
0.68902
0.381284
0.704043
0.378461
0.553467
0.45319
0.689619
0.680117
0.703588
0.680508
0.432458
0.358358
0.436248
0.680461
0.688652
0.597699
0.597711
0.518158
0.491138
0.680375
0.357901
0.683095
0.51802
0.6804
0.677548
0.363733
0.428252
0.358451
0.358404
0.4352
0.688797
0.689303
0.358518
0.686141
0.5977
0.48694
0.413348
0.690019
0.358384
0.686122
0.533711
0.70219
0.597703
0.685517
0.63105
0.405598
0.694845
0.689642
0.690068
0.358323
0.685108
0.5977
0.516624
0.688525
0.682122
0.691027
0.690417
0.691198
0.689889
0.690275
0.680297
0.679645
0.358283
0.695634
0.358434
0.595845
0.690547
0.434823
0.690683
0.684678
0.45269
0.687099
0.358293
0.439025
0.690704
0.683214
0.689057
0.358248
0.690067
0.5977
0.453563
0.358674
0.690643
0.689565
0.520731
0.424533
0.692716
0.689757
0.358208
0.597701
0.69072
0.5977
0.374561
0.358179
0.434902
0.597704
0.44704
0.692627
0.705628
0.680433
0.5977
0.686378
0.358269
0.690168
0.5977
0.690249
0.634831
0.438626
0.358088
0.430969
0.699176
0.688502
0.53206
0.597703
0.486156
0.679692
0.68843
0.418173
0.695725
0.693218
0.5977
0.359501
0.360793
0.495855
0.688073
0.692159
0.5977
0.573656
0.685626
0.358147
0.5977
0.563256
0.684393
0.360466
0.5977
0.456922
0.685008
0.438201
0.682304
0.690816
0.41219
0.687751
0.597706
0.558275
0.595727
0.558187
0.689838
0.565553
0.680407
0.680238
0.689469
0.68315
0.551712
0.562512
0.386602
0.680259
0.427638
0.358047
0.439813
0.432219
0.358362
0.359149
0.690012
0.515043
0.395516
0.640939
0.688081
0.689641
0.576399
0.697599
0.697171
0.680361
0.445696
0.592861
0.687366
0.481296
0.433539
0.358337
0.5977
0.567911
0.358264
0.597701
0.434994
0.61685
0.564853
0.371072
0.554462
0.597701
0.502416
0.689057
0.42066
0.5977
0.518698
0.691472
0.526361
0.672351
0.553212
0.68404
0.597722
0.358253
0.692098
0.690298
0.436783
0.43821
0.680452
0.358447
0.698893
0.358615
0.597643
0.429047
0.687013
0.453655
0.689722
0.358127
0.68858
0.686248
0.69062
0.557045
0.385466
0.427325
0.576624
0.690289
0.686286
0.687057
0.5977
0.453573
0.692121
0.502266
0.688392
0.681446
0.574759
0.481916
0.694135
0.681292
0.424705
0.680279
0.692251
0.692892
0.697033
0.423727
0.5977
0.358333
0.692857
0.449366
0.68034
0.688796
0.692691
0.689467
0.485092
0.688169
0.358225
0.35846
0.688548
0.556068
0.5977
0.683811
0.554059
0.358425
0.700485
0.691177
0.690442
0.438275
0.548089
0.690018
0.358431
0.687469
0.689917
0.691127
0.690874
0.479104
0.58433
0.5977
0.415696
0.690147
0.689905
0.591055
0.69029
0.478805
0.686448
0.700308
0.593525
0.690561
0.360767
0.437839
0.684899
0.691751
0.44526
0.503453
0.444843
0.423483
0.394499
0.440497
0.458531
0.358363
0.685023
0.426243
0.37495
0.691591
0.597699
0.558057
0.530785
0.35836
0.686568
0.582389
0.5977
0.69209
0.522754
0.5977
0.680287
0.5977
0.692624
0.413093
0.687273
0.680297
0.380635
0.358382
0.573584
0.684571
0.5977
0.691307
0.680279
0.68511
0.694592
0.554793
0.687233
0.680335
0.691586
0.35828
0.686951
0.679822
0.547899
0.545357
0.376819
0.423662
0.395518
0.5977
0.615495
0.693701
0.358417
0.526614
0.690719
0.442686
0.689035
0.680219
0.691446
0.595777
0.685406
0.477028
0.425425
0.426006
0.5977
0.445767
0.684633
0.427285
0.686586
0.68031
0.686166
0.48637
0.577869
0.558865
0.686184
0.413052
0.358293
0.690324
0.69221
0.589541
0.680439
0.690767
0.6987
0.358286
0.5977
0.692124
0.583069
0.685882
0.690685
0.696681
0.54116
0.531361
0.690517
0.563512
0.5977
0.358393
0.689558
0.690559
0.57274
0.447664
0.693244
0.589555
0.69067
0.689495
0.358327
0.358346
0.658997
0.597711
0.581137
0.690894
0.690579
0.460088
0.691942
0.664176
0.688007
0.358361
0.5977
0.358264
0.690322
0.689574
0.697924
0.696458
0.67222
0.489689
0.519334
0.685232
0.35833
0.5977
0.474863
0.685894
0.406928
0.597403
0.692559
0.653821
0.358239
0.558239
0.576431
0.358274
0.689797
0.439839
0.690362
0.35819
0.360569
0.416124
0.684805
0.691451
0.500824
0.492629
0.689214
0.690999
0.559908
0.709038
0.358428
0.597698
0.358343
0.682526
0.35836
0.669621
0.69025
0.447592
0.597718
0.359395
0.680582
0.388921
0.358344
0.692118
0.437518
0.697806
0.581504
0.413856
0.69166
0.673467
0.690863
0.670848
0.47183
0.5977
0.429546
0.358236
0.689563
0.680156