# vtk DataFile Version 1.0
unstructured grid
ascii
DATASET UNSTRUCTURED_GRID
points 13672 float
0.0796578 -0.059106 0
0.00128732 0.00159165 0
0.00227961 -0.00102548 0
0.0791586 -0.0598787 0
-0.0546216 0.01 0
0.000495206 0.025 0
0.0800549 -0.035 0
0.135172 -0.08 0
-0.0546216 -0.0451168 0
0.000495206 -0.0301168 0
0.0800549 -0.0901168 0
0.135172 -0.135117 0
-0.0546216 -0.0451168 -0.00551168
0.000495206 -0.0301168 -0.00551168
0.0800549 -0.0901168 -0.00551168
0.135172 -0.135117 -0.00551168
0.135172 -0.08 -0.00551168
0.0800549 -0.035 -0.00551168
0.000495206 0.025 -0.00551168
-0.0546216 0.01 -0.00551168
0.00128732 0.00159165 -0.00551168
0.00227961 -0.00102548 -0.00551168
0.0791586 -0.0598787 -0.00551168
0.0796578 -0.059106 -0.00551168
0.00165953 -0.000990923 0
0.00119576 -0.000874076 0
0.000866021 -0.000641801 0
0.000645147 -0.000349912 0
0.00052235 -1.7281e-05 0
0.00049972 0.000348016 0
0.000601632 0.000737716 0
0.000861774 0.0011403 0
0.00157235 0.00183217 0
0.00188647 0.00206725 0
0.00222612 0.00230203 0
0.00258713 0.00254351 0
0.00296826 0.00279524 0
0.00337118 0.00305664 0
0.00379785 0.00332658 0
0.00425045 0.00360349 0
0.00473139 0.00388521 0
0.0052432 0.00416895 0
0.0057881 0.00445204 0
0.00636753 0.00473281 0
0.00698281 0.00500961 0
0.00763526 0.00528058 0
0.00832616 0.00554366 0
0.00905691 0.00579603 0
0.00982918 0.00603333 0
0.0106445 0.00625033 0
0.0115038 0.00644128 0
0.0124073 0.00660297 0
0.0133543 0.00673414 0
0.0143444 0.00683382 0
0.0153769 0.00690031 0
0.0164512 0.00693173 0
0.0175666 0.00692547 0
0.0187219 0.00687822 0
0.0199156 0.00678477 0
0.0211454 0.00663864 0
0.0224084 0.00643275 0
0.0237018 0.00616676 0
0.0250249 0.00584739 0
0.026375 0.00547298 0
0.0277479 0.00503752 0
0.0291386 0.00453545 0
0.0305433 0.0039653 0
0.0319572 0.0033256 0
0.0333681 0.00260019 0
0.034775 0.00179799 0
0.0361793 0.000930615 0
0.0375798 3.12222e-06 0
0.0389689 -0.000988429 0
0.0403357 -0.00205109 0
0.041675 -0.00318283 0
0.0429849 -0.00437751 0
0.0442643 -0.00562904 0
0.0455126 -0.00693089 0
0.0467314 -0.00827518 0
0.0479204 -0.00965638 0
0.0490661 -0.0110799 0
0.0501515 -0.0125519 0
0.0511696 -0.0140695 0
0.0521492 -0.0156071 0
0.0531202 -0.0171411 0
0.0540851 -0.0186663 0
0.0550431 -0.0201798 0
0.0559923 -0.0216793 0
0.0569311 -0.0231626 0
0.0578582 -0.0246273 0
0.0587723 -0.0260715 0
0.0596721 -0.027493 0
0.0605563 -0.02889 0
0.0614241 -0.0302609 0
0.0622742 -0.0316042 0
0.063106 -0.0329183 0
0.0639186 -0.034202 0
0.0647113 -0.0354543 0
0.0654835 -0.0366743 0
0.0662345 -0.0378613 0
0.0669642 -0.0390145 0
0.0676726 -0.0401333 0
0.0683597 -0.0412172 0
0.0690246 -0.0422665 0
0.0696662 -0.0432819 0
0.0702841 -0.0442636 0
0.0708793 -0.0452111 0
0.0714538 -0.0461237 0
0.072009 -0.047001 0
0.0725452 -0.0478434 0
0.0730611 -0.0486524 0
0.073556 -0.0494294 0
0.0740291 -0.0501756 0
0.0744812 -0.0508916 0
0.0749138 -0.0515773 0
0.0753285 -0.0522331 0
0.0757266 -0.0528592 0
0.076109 -0.0534564 0
0.0764753 -0.0540264 0
0.0768243 -0.054571 0
0.0771553 -0.0550919 0
0.0774679 -0.0555901 0
0.0777617 -0.0560669 0
0.0780369 -0.056523 0
0.0782958 -0.0569578 0
0.0785421 -0.0573703 0
0.0787786 -0.0577603 0
0.0790073 -0.0581279 0
0.0792295 -0.058474 0
0.0794462 -0.0587995 0
0.0798803 -0.0594162 0
0.0800272 -0.0596588 0
0.0800357 -0.0598891 0
0.0799275 -0.0600784 0
0.0797205 -0.0601773 0
0.0794593 -0.0601051 0
0.0789155 -0.0596491 0
0.0786707 -0.0593963 0
0.0784111 -0.0591319 0
0.0781372 -0.0588542 0
0.0778566 -0.0585548 0
0.0775715 -0.0582308 0
0.0772803 -0.0578828 0
0.0769832 -0.0575099 0
0.0766822 -0.0571097 0
0.0763801 -0.0566796 0
0.0760759 -0.0562196 0
0.0757623 -0.0557337 0
0.0754359 -0.0552232 0
0.0750951 -0.0546879 0
0.0747379 -0.054128 0
0.0743626 -0.0535435 0
0.0739688 -0.0529338 0
0.0735559 -0.0522981 0
0.0731238 -0.0516357 0
0.0726718 -0.050946 0
0.0721991 -0.0502288 0
0.0717046 -0.049484 0
0.0711872 -0.0487117 0
0.0706461 -0.047912 0
0.0700804 -0.0470849 0
0.0694892 -0.0462308 0
0.0688718 -0.0453499 0
0.0682271 -0.0444431 0
0.0675544 -0.043511 0
0.0668527 -0.0425546 0
0.0661215 -0.0415748 0
0.06536 -0.040573 0
0.0645676 -0.0395504 0
0.0637439 -0.0385087 0
0.0628887 -0.0374493 0
0.062002 -0.0363741 0
0.0610838 -0.0352847 0
0.0601345 -0.0341831 0
0.0591547 -0.033071 0
0.0581456 -0.0319502 0
0.0571083 -0.0308224 0
0.0560444 -0.0296893 0
0.0549562 -0.028552 0
0.053845 -0.0274126 0
0.0527113 -0.0262746 0
0.051554 -0.0251427 0
0.0503724 -0.0240222 0
0.0491675 -0.0229164 0
0.047941 -0.0218282 0
0.0466955 -0.0207597 0
0.0454337 -0.0197126 0
0.0441592 -0.0186878 0
0.0428751 -0.0176863 0
0.0415841 -0.0167097 0
0.0402878 -0.0157609 0
0.0389879 -0.0148428 0
0.0376864 -0.0139575 0
0.0363853 -0.013107 0
0.0350871 -0.0122931 0
0.0337942 -0.0115164 0
0.0325095 -0.0107772 0
0.0312357 -0.0100756 0
0.0299758 -0.00941024 0
0.0287337 -0.00877784 0
0.0275126 -0.00817571 0
0.0263139 -0.00760375 0
0.0251376 -0.00706528 0
0.0239829 -0.0065649 0
0.0228537 -0.00609619 0
0.0217522 -0.00565563 0
0.0206795 -0.00524226 0
0.0196364 -0.00485507 0
0.0186233 -0.00449318 0
0.0176408 -0.00415577 0
0.016689 -0.00384204 0
0.0157682 -0.00355115 0
0.0148783 -0.00328218 0
0.0140192 -0.00303468 0
0.0131906 -0.00280795 0
0.0123925 -0.00260016 0
0.0116246 -0.00241012 0
0.0108864 -0.00223769 0
0.0101774 -0.00208212 0
0.00949701 -0.00194206 0
0.00884483 -0.0018163 0
0.0082202 -0.0017039 0
0.00762247 -0.00160391 0
0.00705097 -0.00151528 0
0.006505 -0.00143697 0
0.0059838 -0.00136806 0
0.00548662 -0.00130772 0
0.00501265 -0.00125519 0
0.00456114 -0.00120954 0
0.00413136 -0.00116914 0
0.00372257 -0.00113251 0
0.00333398 -0.00109853 0
0.00296466 -0.00106798 0
0.00261363 -0.0010431 0
-0.052721 -0.0445996 0
-0.0508204 -0.0440823 0
-0.0489199 -0.0435651 0
-0.0470193 -0.0430478 0
-0.0451187 -0.0425306 0
-0.0432181 -0.0420134 0
-0.0413175 -0.0414961 0
-0.039417 -0.0409789 0
-0.0375164 -0.0404616 0
-0.0356158 -0.0399444 0
-0.0337152 -0.0394271 0
-0.0318146 -0.0389099 0
-0.0299141 -0.0383927 0
-0.0280135 -0.0378754 0
-0.0261129 -0.0373582 0
-0.0242123 -0.0368409 0
-0.0223117 -0.0363237 0
-0.0204112 -0.0358065 0
-0.0185106 -0.0352892 0
-0.01661 -0.034772 0
-0.0147094 -0.0342547 0
-0.0128088 -0.0337375 0
-0.0109083 -0.0332202 0
-0.00900769 -0.032703 0
-0.00710711 -0.0321858 0
-0.00520653 -0.0316685 0
-0.00330595 -0.0311513 0
-0.00140537 -0.030634 0
0.00190689 -0.0299614 0
0.00332271 -0.0298498 0
0.00474133 -0.0297825 0
0.00616136 -0.0297597 0
0.0075814 -0.0297814 0
0.00900007 -0.0298477 0
0.010416 -0.0299583 0
0.0118278 -0.0301127 0
0.0132342 -0.0303103 0
0.0146339 -0.0305504 0
0.0160259 -0.0308322 0
0.0174091 -0.0311546 0
0.0187824 -0.0315166 0
0.020145 -0.031917 0
0.0214961 -0.0323546 0
0.0228351 -0.032828 0
0.0241613 -0.0333361 0
0.0254744 -0.0338774 0
0.0267738 -0.0344507 0
0.0280592 -0.0350545 0
0.0293306 -0.0356877 0
0.0305875 -0.0363488 0
0.0318301 -0.0370367 0
0.0330581 -0.0377501 0
0.0342717 -0.0384879 0
0.0354708 -0.0392489 0
0.0366556 -0.0400321 0
0.0378262 -0.0408363 0
0.0389828 -0.0416607 0
0.0401254 -0.0425042 0
0.0412543 -0.0433659 0
0.0423698 -0.0442451 0
0.043472 -0.0451408 0
0.0445612 -0.0460523 0
0.0456375 -0.0469789 0
0.0467013 -0.0479199 0
0.0477529 -0.0488746 0
0.0487923 -0.0498424 0
0.04982 -0.0508227 0
0.0508362 -0.051815 0
0.051841 -0.0528187 0
0.0528348 -0.0538333 0
0.0538178 -0.0548584 0
0.0547903 -0.0558935 0
0.0557524 -0.0569382 0
0.0567045 -0.0579922 0
0.0576467 -0.0590549 0
0.0585792 -0.0601261 0
0.0595024 -0.0612055 0
0.0604163 -0.0622926 0
0.0613212 -0.0633873 0
0.0622174 -0.0644891 0
0.0631049 -0.0655979 0
0.0639841 -0.0667134 0
0.064855 -0.0678353 0
0.0657179 -0.0689633 0
0.0665729 -0.0700974 0
0.0674202 -0.0712372 0
0.06826 -0.0723826 0
0.0690925 -0.0735333 0
0.0699178 -0.0746892 0
0.070736 -0.0758501 0
0.0715473 -0.0770159 0
0.0723518 -0.0781863 0
0.0731498 -0.0793612 0
0.0739412 -0.0805405 0
0.0747264 -0.081724 0
0.0755053 -0.0829116 0
0.0762781 -0.0841033 0
0.0770449 -0.0852987 0
0.0778059 -0.0864979 0
0.0785611 -0.0877007 0
0.0793108 -0.088907 0
0.0814681 -0.0912706 0
0.0828814 -0.0924245 0
0.0842946 -0.0935783 0
0.0857079 -0.0947322 0
0.0871211 -0.095886 0
0.0885344 -0.0970399 0
0.0899476 -0.0981937 0
0.0913609 -0.0993476 0
0.0927741 -0.100501 0
0.0941874 -0.101655 0
0.0956006 -0.102809 0
0.0970139 -0.103963 0
0.0984272 -0.105117 0
0.0998404 -0.106271 0
0.101254 -0.107424 0
0.102667 -0.108578 0
0.10408 -0.109732 0
0.105493 -0.110886 0
0.106907 -0.11204 0
0.10832 -0.113194 0
0.109733 -0.114348 0
0.111146 -0.115501 0
0.11256 -0.116655 0
0.113973 -0.117809 0
0.115386 -0.118963 0
0.116799 -0.120117 0
0.118213 -0.121271 0
0.119626 -0.122424 0
0.121039 -0.123578 0
0.122452 -0.124732 0
0.123866 -0.125886 0
0.125279 -0.12704 0
0.126692 -0.128194 0
0.128105 -0.129348 0
0.129519 -0.130501 0
0.130932 -0.131655 0
0.132345 -0.132809 0
0.133758 -0.133963 0
0.135172 -0.133216 0
0.135172 -0.131316 0
0.135172 -0.129415 0
0.135172 -0.127514 0
0.135172 -0.125614 0
0.135172 -0.123713 0
0.135172 -0.121813 0
0.135172 -0.119912 0
0.135172 -0.118012 0
0.135172 -0.116111 0
0.135172 -0.11421 0
0.135172 -0.11231 0
0.135172 -0.110409 0
0.135172 -0.108509 0
0.135172 -0.106608 0
0.135172 -0.104708 0
0.135172 -0.102807 0
0.135172 -0.100906 0
0.135172 -0.0990058 0
0.135172 -0.0971052 0
0.135172 -0.0952046 0
0.135172 -0.0933041 0
0.135172 -0.0914035 0
0.135172 -0.0895029 0
0.135172 -0.0876023 0
0.135172 -0.0857017 0
0.135172 -0.0838012 0
0.135172 -0.0819006 0
0.133758 -0.0788462 0
0.132345 -0.0776923 0
0.130932 -0.0765385 0
0.129519 -0.0753846 0
0.128105 -0.0742308 0
0.126692 -0.0730769 0
0.125279 -0.0719231 0
0.123866 -0.0707692 0
0.122452 -0.0696154 0
0.121039 -0.0684615 0
0.119626 -0.0673077 0
0.118213 -0.0661538 0
0.116799 -0.065 0
0.115386 -0.0638462 0
0.113973 -0.0626923 0
0.11256 -0.0615385 0
0.111146 -0.0603846 0
0.109733 -0.0592308 0
0.10832 -0.0580769 0
0.106907 -0.0569231 0
0.105493 -0.0557692 0
0.10408 -0.0546154 0
0.102667 -0.0534615 0
0.101254 -0.0523077 0
0.0998404 -0.0511538 0
0.0984272 -0.05 0
0.0970139 -0.0488462 0
0.0956006 -0.0476923 0
[...]
CELL_DATA 13116
SCALARS rho float
LOOKUP_TABLE default
0.659146
0.689851
0.365497
0.690015
0.691963
0.68641
0.354087
0.690341
0.574866
0.694417
0.355354
0.368548
0.692153
0.359588
0.382873
0.686338
0.658287
0.70072
0.692202
0.352881
0.650577
0.393005
0.368622
0.699471
0.592246
0.685349
0.694513
0.374051
0.592166
0.692163
0.632352
0.366498
0.582088
0.528339
0.35444
0.658344
0.706572
0.69049
0.68422
0.687514
0.693221
0.69041
0.547158
0.359014
0.690919
0.69188
0.683296
0.696854
0.403984
0.563095
0.689973
0.542728
0.350979
0.657376
0.583284
0.592615
0.358659
0.697679
0.565968
0.391511
0.360166
0.691363
0.686116
0.683469
0.657481
0.3485
0.687128
0.71655
0.687307
0.675085
0.382933
0.585601
0.387088
0.355409
0.554066
0.350978
0.686017
0.695306
0.353667
0.702374
0.707991
0.684958
0.698872
0.696802
0.688893
0.494215
0.349122
0.730548
0.686198
0.358109
0.365248
0.690159
0.69747
0.687451
0.695382
0.676405
0.591378
0.57519
0.566675
0.593376
0.717033
0.6726
0.692507
0.496263
0.678245
0.383676
0.464804
0.570498
0.370232
0.596543
0.582607
0.68204
0.668629
0.713476
0.701842
0.687606
0.349036
0.481692
0.699262
0.687993
0.71859
0.389178
0.687412
0.364642
0.687736
0.513545
0.348772
0.548692
0.3664
0.561322
0.697726
0.698775
0.528602
0.40116
0.517821
0.668932
0.558326
0.688241
0.719658
0.688029
0.678948
0.683784
0.550611
0.679878
0.685367
0.368188
0.354779
0.684137
0.692766
0.689171
0.557077
0.696285
0.696635
0.351124
0.694218
0.688272
0.370486
0.713004
0.580196
0.731115
0.69944
0.354863
0.695679
0.369857
0.386928
0.69143
0.686999
0.700851
0.354312
0.506566
0.49047
0.558162
0.379638
0.545726
0.687309
0.370294
0.388412
0.389355
0.681695
0.681944
0.357305
0.503391
0.58665
0.708291
0.683297
0.567789
0.346418
0.687219
0.679075
0.528751
0.681786
0.683764
0.67828
0.371691
0.681826
0.685403
0.695807
0.686985
0.685772
0.446136
0.497392
0.597683
0.546079
0.359177
0.705468
0.693207
0.548339
0.68214
0.38157
0.357103
0.349364
0.686711
0.372033
0.357157
0.357691
0.350083
0.472177
0.680117
0.687542
0.488031
0.356803
0.68707
0.580671
0.357757
0.55676
0.692926
0.684466
0.375086
0.687144
0.475193
0.690596
0.367181
0.679989
0.578253
0.550806
0.687276
0.680632
0.404806
0.510102
0.72946
0.553881
0.685108
0.558362
0.680406
0.690591
0.389406
0.689412
0.693988
0.565945
0.355809
0.406113
0.69388
0.697501
0.675473
0.699084
0.655608
0.713488
0.355334
0.413256
0.460847
0.379617
0.676881
0.696126
0.684399
0.351046
0.687384
0.345266
0.490911
0.678838
0.356891
0.685009
0.690101
0.557501
0.698994
0.403838
0.557896
0.709792
0.571684
0.688072
0.353682
0.349014
0.372169
0.668338
0.38655
0.406707
0.453712
0.442101
0.689548
0.353122
0.685315
0.691518
0.347876
0.353494
0.345591
0.513043
0.372019
0.728883
0.671622
0.680739
0.356998
0.685857
0.575846
0.409094
0.391508
0.686366
0.696039
0.68721
0.345658
0.68546
0.508773
0.698411
0.690385
0.688736
0.690178
0.371625
0.686929
0.366406
0.687074
0.693456
0.735487
0.355844
0.451172
0.693601
0.346076
0.685947
0.691282
0.42698
0.707614
0.698972
0.347011
0.688387
0.697578
0.362723
0.691032
0.490817
0.567725
0.690693
0.494603
0.713146
0.3508
0.700071
0.453255
0.680344
0.673245
0.694756
0.374101
0.467835
0.688926
0.353359
0.704274
0.680068
0.499938
0.558234
0.348127
0.376706
0.701915
0.560148
0.712815
0.34849
0.370639
0.689326
0.69157
0.35503
0.690951
0.351494
0.388665
0.687675
0.690774
0.580672
0.358276
0.688366
0.643005
0.68612
0.687522
0.707393
0.5593
0.391182
0.375357
0.356672
0.685969
0.357242
0.590517
0.433697
0.370051
0.464426
0.583351
0.200678
0.353714
0.689543
0.370161
0.695821
0.593581
0.694274
0.731429
0.689783
0.376607
0.349194
0.454022
0.406451
0.702416
0.660253
0.693165
0.59351
0.686373
0.682018
0.684524
0.67593
0.689186
0.708343
0.703263
0.686335
0.464619
0.548295
0.657284
0.38736
0.671029
0.589959
0.350467
0.68733
0.557559
0.372412
0.354298
0.356785
0.348293
0.597706
0.361211
0.371879
0.68693
0.347329
0.579809
0.357953
0.687038
0.702077
0.37543
0.398713
0.701636
0.510749
0.358296
0.347993
0.358322
0.370869
0.34888
0.354618
0.398728
0.493387
0.355924
0.672109
0.385865
0.685816
0.421982
0.361842
0.523147
0.371488
0.357943
0.372156
0.687163
0.498799
0.591269
0.578725
0.346775
0.681476
0.686264
0.492537
0.707172
0.678946
0.677909
0.348728
0.560757
0.483246
0.700491
0.600598
0.372667
0.353911
0.678234
0.407976
0.493686
0.674013
0.464216
0.713597
0.686392
0.353886
0.385766
0.371698
0.54402
0.388828
0.356778
0.379927
0.364726
0.691173
0.690551
0.516278
0.594562
0.520264
0.681415
0.464307
0.359603
0.576464
0.372908
0.69704
0.421187
0.473589
0.526156
0.690738
0.68629
0.56472
0.423168
0.353051
0.562669
0.690209
0.679696
0.561007
0.679551
0.676706
0.356022
0.701449
0.57613
0.728493
0.449249
0.372148
0.713103
0.696522
0.732654
0.693542
0.684773
0.686696
0.699556
0.728173
0.694102
0.35838
0.690439
0.455423
0.386431
0.357782
0.689842
0.693227
0.448529
0.688362
0.597342
0.356105
0.68207
0.696425
0.707547
0.373696
0.358242
0.702167
0.358355
0.358296
0.376992
0.356267
0.696021
0.360085
0.689094
0.38485
0.690319
0.689691
0.687201
0.691837
0.358353
0.355322
0.694581
0.690796
0.695378
0.691227
0.694108
0.516111
0.347502
0.373284
0.685335
0.570411
0.356767
0.510291
0.369811
0.689204
0.687142
0.449442
0.394891
0.686892
0.497552
0.689632
0.755695
0.365394
0.474524
0.691995
0.555262
0.369961
0.685872
0.686961
0.694148
0.352848
0.558116
0.356749
0.555023
0.731648
0.358284
0.468934
0.404278
0.556724
0.370262
0.352553
0.483615
0.684056
0.703016
0.352944
0.409438
0.357332
0.683888
0.388318
0.685028
0.366738
0.58689
0.693211
0.426388
0.369342
0.36883
0.517255
0.373384
0.685892
0.344966
0.365233
0.686769
0.361248
0.686731
0.68516
0.563195
0.358143
0.697415
0.697137
0.695888
0.685494
0.690179
0.687679
0.377135
0.67714
0.490108
0.694025
0.353159
0.690505
0.563347
0.353776
0.640656
0.700852
0.356247
0.677174
0.36645
0.380621
0.686873
0.686955
0.36887
0.37165
0.353407
0.376573
0.689569
0.69937
0.352845
0.352976
0.704513
0.688158
0.588383
0.696952
0.687146
0.355108
0.694454
0.493818
0.68991
0.483299
0.591889
0.513285
0.686876
0.712971
0.576296
0.460546
0.373383
0.68694
0.590855
0.654402
0.696713
0.375891
0.706628
0.694225
0.47476
0.546415
0.696938
0.430586
0.665792
0.726279
0.448145
0.688732
0.692479
0.370111
0.703396
0.372155
0.685576
0.353499
0.686606
0.685388
0.374437
0.684636
0.69593
0.70314
0.597628
0.699808
0.576832
0.424166
0.50563
0.363866
0.355444
0.558161
0.558852
0.688161
0.694703
0.358213
0.400006
0.701213
0.692957
0.701997
0.690094
0.354638
0.703713
0.693816
0.35332
0.363063
0.699939
0.693591
0.687431
0.37426
0.57926
0.376612
0.70403
0.684985
0.679785
0.691117
0.356646
0.695573
0.685177
0.69804
0.686507
0.691886
0.489051
0.708406
0.357134
0.678941
0.693983
0.506496
0.687427
0.680443
0.689403
0.506851
0.489447
0.578788
0.701027
0.358346
0.358336
0.35616
0.356147
0.691573
0.706075
0.679805
0.44348
0.355703
0.687033
0.712823
0.360638
0.403279
0.510908
0.700103
0.687049
0.687598
0.709007
0.357228
0.358348
0.558163
0.362458
0.357223
0.345438
0.687744
0.376184
0.35826
0.591317
0.694015
0.681302
0.685711
0.687272
0.348665
0.369308
0.356369
0.584168
0.499054
0.365913
0.714274
0.708662
0.687704
0.691426
0.36192
0.358261
0.693843
0.358048
0.691212
0.685243
0.605544
0.368923
0.358349
0.684808
0.638472
0.664337
0.361047
0.689322
0.685755
0.590853
0.688979
0.690301
0.558177
0.679755
0.354811
0.687215
0.664149
0.675425
0.704879
0.558201
0.682167
0.558613
0.687743
0.364364
0.374742
0.358281
0.642818
0.566032
0.358115
0.7006
0.70506
0.36587
0.680517
0.376925
0.683321
0.576019
0.407148
0.692073
0.699518
0.357058
0.55315
0.6442
0.36171
0.687417
0.352067
0.384187
0.680006
0.597295
0.522902
0.69244
0.355119
0.695739
0.382231
0.347787
0.686621
0.356634
0.676708
0.370061
0.67992
0.590824
0.55808
0.686477
0.375931
0.367365
0.675051
0.553561
0.701837
0.536929
0.666892
0.686852
0.69837
0.558151
0.595662
0.681659
0.69523
0.687765
0.456974
0.358304
0.550578
0.681784
0.695291
0.456551
0.691924
0.664774
0.452344
0.368949
0.731258
0.701346
0.55829
0.555853
0.674058
0.709673
0.685763
0.707223
0.372194
0.733789
0.509663
0.688388
0.693039
0.443603
0.690803
0.690959
0.372016
0.398427
0.346025
0.558198
0.354727
0.680342
0.707791
0.735814
0.426286
0.689416
0.360372
0.580079
0.683139
0.678981
0.713994
0.68371
0.594118
0.707324
0.576348
0.69352
0.353978
0.688521
0.687074
0.54242
0.559147
0.705474
0.372327
0.3772
0.362225
0.688937
0.358314
0.558146
0.355576
0.690333
0.354848
0.513734
0.37437
0.701845
0.69015
0.654705
0.418492
0.620217
0.680109
0.357527
0.588986
0.690648
0.364468
0.593711
0.58796
0.693058
0.690826
0.37289
0.568646
0.703233
0.692958
0.679863
0.358348
0.485913
0.689542
0.558204
0.556861
0.558142
0.610925
0.699349
0.593354
0.688314
0.358353
0.360736
0.558126
0.691194
0.684779
0.350103
0.689227
0.658166
0.674303
0.35616
0.484894
0.691147
0.689326
0.572596
0.399151
0.694392
0.557904
0.354364
0.597443
0.711585
0.354501
0.358343
0.368381
0.680156
0.395116
0.358412
0.688319
0.540873
0.694637
0.685347
0.354013
0.34811
0.691459
0.371028
0.361811
0.633188
0.388227
0.465678
0.592521
0.690255
0.697668
0.355964
0.379636
0.35561
0.68559
0.384476
0.698021
0.361415
0.700189
0.68892
0.690271
0.680821
0.69521
0.684423
0.68714
0.691645
0.700308
0.358261
0.35705
0.693237
0.685983
0.524298
0.680697
0.57844
0.685147
0.674378
0.374719
0.687786
0.690921
0.692149
0.35586
0.69615
0.374984
0.696724
0.517207
0.701319
0.685311
0.408882
0.702678
0.357112
0.523006
0.686297
0.345933
0.712684
0.558161
0.690361
0.347627
0.686849
0.356474
0.368202
0.370064
0.357775
0.673215
0.381774
0.680421
0.680052
0.402039
0.371551
0.51431
0.578372
0.684117
0.680585
0.358143
0.346326
0.354974
0.373529
0.414245
0.681313
0.6833
0.374314
0.680148
0.706815
0.366434
0.69096
0.713582
0.680527
0.356425
0.554371
0.699559
0.707298
0.687957
0.389054
0.698813
0.703143
0.696788
0.737366
0.685805
0.413172
0.370481
0.696282
0.547176
0.3583
0.686484
0.373026
0.568849
0.676625
0.685523
0.686165
0.367
0.680352
0.45674
0.356015
0.705505
0.703841
0.69301
0.689458
0.700103
0.368463
0.692343
0.389133
0.523259
0.691434
0.560348
0.702795
0.355961
0.404846
0.693826
0.425278
0.70245
0.657176
0.499146
0.417435
0.68789
0.370813
0.685005
0.702901
0.693444
0.370611
0.375519
0.543282
0.574742
0.680077
0.532503
0.686965
0.680551
0.685675
0.55818
0.701284
0.351819
0.413157
0.697535
0.68481
0.678653
0.504657
0.356879
0.700416
0.376235
0.687169
0.596891
0.388507
0.701889
0.354974
0.688825
0.366481
0.692158
0.40109
0.695763
0.681466
0.351576
0.68778
0.698883
0.35431
0.680192
0.691584
0.580011
0.369588
0.452911
0.532027
0.697113
0.675035
0.39652
0.577101
0.702544
0.686739
0.428574
0.674628
0.689576
0.495724
0.687151
0.68706
0.441083
0.699378
0.586006
0.363963
0.677148
0.349949
0.682511
0.351317
0.38576
0.696918
0.358289
0.357463
0.373255
0.686983
0.687112
0.470559
0.69464
0.456057
0.694937
0.356628
0.68849
0.438219
0.686906
0.696876
0.688215
0.679989
0.554809
0.682099
0.680066
0.371159
0.607451
0.691683
0.614862
0.700713
0.517548
0.490433
0.692346
0.35721
0.579742
0.3776
0.692947
0.356694
0.37174
0.699735
0.687178
0.354227
0.688611
0.706915
0.558191
0.690116
0.560484
0.355113
0.69156
0.355984
0.370851
0.686911
0.707521
0.690213
0.686475
0.374218
0.350623
0.355371
0.689626
0.679893
0.453447
0.690519
0.349007
0.349159
0.352542
0.685878
0.483841
0.692048
0.700812
0.591817
0.686695
0.699434
0.593031
0.682632
0.491733
0.361849
0.354688
0.554359
0.553587
0.351994
0.679927
0.679287
0.683671
0.372642
0.511007
0.681357
0.398468
0.679846
0.672477
0.356716
0.680152
0.692109
0.358327
0.697128
0.359472
0.688155
0.694385
0.695192
0.378067
0.504244
0.711176
0.445233
0.493038
0.686566
0.451081
0.679874
0.687626
0.684721
0.703324
0.393693
0.632729
0.704838
0.692606
0.46604
0.689837
0.38675
0.366259
0.689332
0.687121
0.680453
0.352881
0.686012
0.592148
0.551419
0.346869
0.351628
0.358331
0.688526
0.354588
0.361428
0.368269
0.672029
0.361077
0.442602
0.494208
0.69793
0.357878
0.68003
0.680052
0.687444
0.346735
0.698849
0.719621
0.680189
0.486721
0.740223
0.354846
0.357549
0.686834
0.354043
0.677291
0.702801
0.558113
0.358002
0.451495
0.35625
0.561804
0.558298
0.354941
0.690822
0.686973
0.701112
0.357147
0.386582
0.455997
0.675522
0.357574
0.558191
0.593597
0.680229
0.689559
0.353996
0.678168
0.375353
0.670669
0.66032
0.693372
0.669475
0.633184
0.724701
0.679609
0.693994
0.352733
0.421235
0.348667
0.701524
0.571937
0.566751
0.357798
0.488164
0.706621
0.698799
0.673283
0.354519
0.68757
0.560628
0.564272
0.675372
0.372476
0.354708
0.442824
0.687159
0.681076
0.743902
0.681172
0.456956
0.690466
0.742397
0.681455
0.680177
0.690202
0.691096
0.685787
0.71112
0.694189
0.373124
0.694705
0.689649
0.687807
0.698105
0.687027
0.667971
0.356223
0.382714
0.67653
0.358249
0.396386
0.68751
0.373967
0.594865
0.686993
0.688461
0.692386
0.373141
0.687716
0.370368
0.357049
0.685844
0.698389
0.690301
0.345201
0.690405
0.692688
0.676604
0.687282
0.38925
0.687601
0.693788
0.692856
0.449339
0.699068
0.356047
0.688803
0.34783
0.356625
0.658901
0.507124
0.692235
0.696301
0.688369
0.367925
0.687006
0.472846
0.376627
0.684478
0.513896
0.358287
0.692978
0.395973
0.528707
0.722514
0.682875
0.687595
0.5158
0.585992
0.719272
0.684595
0.66812
0.692768
0.548279
0.689113
0.680938
0.700575
0.372788
0.353968
0.505097
0.689314
0.372422
0.732026
0.688514
0.669843
0.684697
0.644128
0.708136
0.707547
0.35625
0.688415
0.679478
0.640445
0.679506
0.692912
0.685994
0.686346
0.357259
0.369526
0.694848
0.574772
0.629303
0.688104
0.696191
0.694796
0.696403
0.694378
0.686058
0.679786
0.693802
0.368255
0.383082
0.358601
0.383151
0.557881
0.520633
0.591914
0.70119
0.70912
0.371682
0.693012
0.68934
0.344802
0.476341
0.556396
0.688985
0.373415
0.372561
0.37737
0.558189
0.68556
0.45167
0.352203
0.356151
0.392048
0.425117
0.358281
0.69082
0.696931
0.701043
0.353265
0.688699
0.675188
0.595056
0.423604
0.353647
0.684512
0.558365
0.358159
0.686944
0.358288
0.699569
0.372915
0.687268
0.350251
0.68808
0.691248
0.348315
0.565554
0.42494
0.691263
0.385916
0.675696
0.372807
0.556432
0.355093
0.674957
0.357581
0.678303
0.679622
0.594956
0.694555
0.424838
0.688432
0.683062
0.690843
0.67495
0.696126
0.353939
0.506019
0.350036
0.69744
0.425231
0.69109
0.561082
0.707542
0.692736
0.571275
0.707993
0.378011
0.355717
0.368102
0.553001
0.660489
0.695498
0.357069
0.404665
0.686452
0.476246
0.371288
0.665813
0.474655
0.358232
0.380696
0.690313
0.722423
0.676524
0.364071
0.687586
0.687122
0.336242
0.450145
0.685438
0.68726
0.669607
0.532276
0.485554
0.466053
0.351381
0.68937
0.675474
0.572606
0.70662
0.385832
0.589952
0.354777
0.661128
0.690642
0.354665
0.422905
0.678171
0.664746
0.691407
0.694183
0.696357
0.688032
0.691513
0.348472
0.389335
0.349652
0.353743
0.657068
0.610309
0.755259
0.35449
0.358181
0.534629
0.355341
0.695137
0.682431
0.357477
0.446323
0.687187
0.369465
0.714443
0.698385
0.685793
0.68724
0.660025
0.3583
0.348614
0.677537
0.355056
0.513706
0.46587
0.685789
0.687013
0.432297
0.356839
0.558146
0.357612
0.687309
0.697435
0.358383
0.371576
0.353152
0.688587
0.349715
0.558162
0.706907
0.681158
0.359941
0.545159
0.700255
0.689714
0.353699
0.689487
0.677404
0.365591
0.701238
0.688763
0.355802
0.35839
0.684252
0.35718
0.353549
0.689494
0.459735
0.695162
0.709194
0.698427
0.679403
0.691266
0.687427
0.683114
0.354996
0.483971
0.681107
0.696364
0.503089
0.691416
0.450388
0.687712
0.687736
0.5867
0.706563
0.505726
0.511819
0.693258
0.701169
0.680697
0.691122
0.686059
0.558007
0.690313
0.55815
0.689807
0.68476
0.689567
0.558197
0.683724
0.364515
0.685191
0.370156
0.68784
0.692084
0.708237
0.684071
0.701726
0.369642
0.354309
0.449116
0.353867
0.685654
0.351031
0.356466
0.708065
0.368725
0.71119
0.352651
0.689145
0.698958
0.358338
0.475495
0.390485
0.688682
0.360022
0.695031
0.70273
0.355847
0.684494
0.567228
0.401063
0.373388
0.337227
0.706661
0.358388
0.68806
0.645443
0.427064
0.688249
0.693366
0.696717
0.358241
0.589602
0.373905
0.689105
0.686328
0.687646
0.35831
0.696288
0.688175
0.680955
0.49296
0.688546
0.358314
0.356103
0.687304
0.517684
0.694286
0.492837
0.358298
0.496617
0.681435
0.370595
0.358061
0.354951
0.574152
0.558662
0.700949
0.361696
0.674692
0.687502
0.560455
0.533083
0.38549
0.568528
0.358342
0.355103
0.691823
0.356411
0.358053
0.688969
0.690716
0.345091
0.701241
0.349226
0.556931
0.374581
0.685114
0.674635
0.700955
0.680243
0.382884
0.355227
0.371322
0.686505
0.684174
0.584508
0.567384
0.470231
0.438402
0.686925
0.355201
0.695724
0.472114
0.679322
0.716622
0.347459
0.361959
0.356511
0.356617
0.365462
0.677819
0.68637
0.350832
0.699075
0.686223
0.427796
0.376991
0.690676
0.358127
0.698331
0.49004
0.701199
0.722727
0.69859
0.568986
0.372961
0.694286
0.687565
0.69054
0.358261
0.675892
0.590381
0.394637
0.689249
0.68551
0.690282
0.687355
0.691557
0.687081
0.690148
0.687734
0.691866
0.358367
0.697307
0.356553
0.542711
0.686351
0.371916
0.688603
0.677217
0.404923
0.680762
0.358319
0.366287
0.686663
0.674863
0.690963
0.356595
0.687071
0.592742
0.374076
0.351833
0.68692
0.687143
0.476305
0.361259
0.708497
0.69059
0.358345
0.691931
0.691371
0.774798
0.345113
0.358316
0.371195
0.728003
0.40322
0.689905
0.702117
0.688683
0.675027
0.698965
0.356769
0.685918
0.597648
0.691218
0.669459
0.371478
0.354626
0.38583
0.699307
0.703026
0.487839
0.717993
0.38094
0.688889
0.687935
0.377723
0.676643
0.690222
0.685642
0.351554
0.349556
0.384161
0.702774
0.694256
0.593967
0.532475
0.698568
0.358075
0.689609
0.555887
0.696713
0.350959
0.597705
0.407021
0.677894
0.388885
0.69407
0.687099
0.362516
0.701585
0.54613
0.558154
0.688269
0.558177
0.688584
0.504144
0.684389
0.693505
0.687241
0.694539
0.509495
0.555274
0.356164
0.694058
0.384539
0.357284
0.394885
0.364498
0.358351
0.350964
0.691447
0.468558
0.36427
0.708178
0.7015
0.686548
0.458044
0.714186
0.70887
0.686402
0.363276
0.670005
0.687177
0.392413
0.362763
0.355338
0.686914
0.526484
0.358348
0.66916
0.357986
0.558098
0.523259
0.349084
0.511216
0.711352
0.38763
0.687161
0.38129
0.59878
0.474172
0.689223
0.480795
0.698111
0.555145
0.67753
0.531932
0.355869
0.689689
0.6908
0.365413
0.368154
0.68682
0.356392
0.699147
0.354062
0.566669
0.384106
0.687258
0.387449
0.691229
0.356784
0.687925
0.699394
0.697454
0.557907
0.355953
0.371343
0.453748
0.686243
0.707563
0.68106
0.661584
0.400731
0.708572
0.386573
0.684033
0.673468
0.489156
0.420037
0.695366
0.69371
0.373144
0.660045
0.690155
0.695085
0.698224
0.383671
0.690508
0.357337
0.695642
0.402354
0.680465
0.683861
0.690381
0.69145
0.428844
0.690428
0.358161
0.356313
0.687296
0.557394
0.578603
0.694531
0.557277
0.358147
0.700451
0.688489
0.690081
0.368637
0.502358
0.717885
0.350411
0.687933
0.687947
0.688981
0.689262
0.416025
0.52982
0.710528
0.365242
0.686981
0.69023
0.543498
0.686848
0.423862
0.678578
0.699879
0.712253
0.687519
0.349721
0.371763
0.695663
0.689259
0.399527
0.432168
0.383873
0.368507
0.363313
0.35824
0.373446
0.358272
0.695572
0.383969
0.344927
0.707421
0.57981
0.558167
0.485923
0.357493
0.687531
0.534066
0.582524
0.694245
0.477148
0.732774
0.679874
0.596694
0.689283
0.358529
0.701168
0.681587
0.357703
0.355924
0.493023
0.676816
0.597146
0.691826
0.686507
0.697217
0.690526
0.418662
0.701796
0.682359
0.688604
0.356614
0.687655
0.671324
0.414311
0.500538
0.352132
0.374426
0.36323
0.592764
0.723252
0.693979
0.355406
0.479802
0.691338
0.356973
0.703648
0.693922
0.6889
0.713137
0.698441
0.389855
0.374331
0.376973
0.610058
0.40038
0.696662
0.378408
0.686755
0.686849
0.696001
0.38058
0.525992
0.501716
0.699064
0.357848
0.355192
0.687602
0.689074
0.675942
0.686613
0.687085
0.698729
0.358294
0.597709
0.69198
0.542801
0.69815
0.705796
0.696852
0.497552
0.487311
0.69009
0.521802
0.675422
0.357307
0.684772
0.689408
0.450144
0.404421
0.688839
0.547074
0.698029
0.70403
0.358376
0.353877
0.595365
0.527568
0.467201
0.688233
0.686859
0.410905
0.689692
0.594319
0.684331
0.358376
0.595227
0.35829
0.686452
0.690567
0.698252
0.693383
0.621682
0.443746
0.44946
0.697841
0.357659
0.595434
0.422791
0.699084
0.366531
0.699402
0.692024
0.585018
0.358298
0.558179
0.554901
0.354489
0.685159
0.344107
0.690637
0.358269
0.348663
0.373688
0.700387
0.690025
0.448163