# vtk DataFile Version 1.0
unstructured grid
ascii
DATASET UNSTRUCTURED_GRID
points 13672 float
0.0796578 -0.059106 0
0.00128732 0.00159165 0
0.00227961 -0.00102548 0
0.0791586 -0.0598787 0
-0.0546216 0.01 0
0.000495206 0.025 0
0.0800549 -0.035 0
0.135172 -0.08 0
-0.0546216 -0.0451168 0
0.000495206 -0.0301168 0
0.0800549 -0.0901168 0
0.135172 -0.135117 0
-0.0546216 -0.0451168 -0.00551168
0.000495206 -0.0301168 -0.00551168
0.0800549 -0.0901168 -0.00551168
0.135172 -0.135117 -0.00551168
0.135172 -0.08 -0.00551168
0.0800549 -0.035 -0.00551168
0.000495206 0.025 -0.00551168
-0.0546216 0.01 -0.00551168
0.00128732 0.00159165 -0.00551168
0.00227961 -0.00102548 -0.00551168
0.0791586 -0.0598787 -0.00551168
0.0796578 -0.059106 -0.00551168
0.00165953 -0.000990923 0
0.00119576 -0.000874076 0
0.000866021 -0.000641801 0
0.000645147 -0.000349912 0
0.00052235 -1.7281e-05 0
0.00049972 0.000348016 0
0.000601632 0.000737716 0
0.000861774 0.0011403 0
0.00157235 0.00183217 0
0.00188647 0.00206725 0
0.00222612 0.00230203 0
0.00258713 0.00254351 0
0.00296826 0.00279524 0
0.00337118 0.00305664 0
0.00379785 0.00332658 0
0.00425045 0.00360349 0
0.00473139 0.00388521 0
0.0052432 0.00416895 0
0.0057881 0.00445204 0
0.00636753 0.00473281 0
0.00698281 0.00500961 0
0.00763526 0.00528058 0
0.00832616 0.00554366 0
0.00905691 0.00579603 0
0.00982918 0.00603333 0
0.0106445 0.00625033 0
0.0115038 0.00644128 0
0.0124073 0.00660297 0
0.0133543 0.00673414 0
0.0143444 0.00683382 0
0.0153769 0.00690031 0
0.0164512 0.00693173 0
0.0175666 0.00692547 0
0.0187219 0.00687822 0
0.0199156 0.00678477 0
0.0211454 0.00663864 0
0.0224084 0.00643275 0
0.0237018 0.00616676 0
0.0250249 0.00584739 0
0.026375 0.00547298 0
0.0277479 0.00503752 0
0.0291386 0.00453545 0
0.0305433 0.0039653 0
0.0319572 0.0033256 0
0.0333681 0.00260019 0
0.034775 0.00179799 0
0.0361793 0.000930615 0
0.0375798 3.12222e-06 0
0.0389689 -0.000988429 0
0.0403357 -0.00205109 0
0.041675 -0.00318283 0
0.0429849 -0.00437751 0
0.0442643 -0.00562904 0
0.0455126 -0.00693089 0
0.0467314 -0.00827518 0
0.0479204 -0.00965638 0
0.0490661 -0.0110799 0
0.0501515 -0.0125519 0
0.0511696 -0.0140695 0
0.0521492 -0.0156071 0
0.0531202 -0.0171411 0
0.0540851 -0.0186663 0
0.0550431 -0.0201798 0
0.0559923 -0.0216793 0
0.0569311 -0.0231626 0
0.0578582 -0.0246273 0
0.0587723 -0.0260715 0
0.0596721 -0.027493 0
0.0605563 -0.02889 0
0.0614241 -0.0302609 0
0.0622742 -0.0316042 0
0.063106 -0.0329183 0
0.0639186 -0.034202 0
0.0647113 -0.0354543 0
0.0654835 -0.0366743 0
0.0662345 -0.0378613 0
0.0669642 -0.0390145 0
0.0676726 -0.0401333 0
0.0683597 -0.0412172 0
0.0690246 -0.0422665 0
0.0696662 -0.0432819 0
0.0702841 -0.0442636 0
0.0708793 -0.0452111 0
0.0714538 -0.0461237 0
0.072009 -0.047001 0
0.0725452 -0.0478434 0
0.0730611 -0.0486524 0
0.073556 -0.0494294 0
0.0740291 -0.0501756 0
0.0744812 -0.0508916 0
0.0749138 -0.0515773 0
0.0753285 -0.0522331 0
0.0757266 -0.0528592 0
0.076109 -0.0534564 0
0.0764753 -0.0540264 0
0.0768243 -0.054571 0
0.0771553 -0.0550919 0
0.0774679 -0.0555901 0
0.0777617 -0.0560669 0
0.0780369 -0.056523 0
0.0782958 -0.0569578 0
0.0785421 -0.0573703 0
0.0787786 -0.0577603 0
0.0790073 -0.0581279 0
0.0792295 -0.058474 0
0.0794462 -0.0587995 0
0.0798803 -0.0594162 0
0.0800272 -0.0596588 0
0.0800357 -0.0598891 0
0.0799275 -0.0600784 0
0.0797205 -0.0601773 0
0.0794593 -0.0601051 0
0.0789155 -0.0596491 0
0.0786707 -0.0593963 0
0.0784111 -0.0591319 0
0.0781372 -0.0588542 0
0.0778566 -0.0585548 0
0.0775715 -0.0582308 0
0.0772803 -0.0578828 0
0.0769832 -0.0575099 0
0.0766822 -0.0571097 0
0.0763801 -0.0566796 0
0.0760759 -0.0562196 0
0.0757623 -0.0557337 0
0.0754359 -0.0552232 0
0.0750951 -0.0546879 0
0.0747379 -0.054128 0
0.0743626 -0.0535435 0
0.0739688 -0.0529338 0
0.0735559 -0.0522981 0
0.0731238 -0.0516357 0
0.0726718 -0.050946 0
0.0721991 -0.0502288 0
0.0717046 -0.049484 0
0.0711872 -0.0487117 0
0.0706461 -0.047912 0
0.0700804 -0.0470849 0
0.0694892 -0.0462308 0
0.0688718 -0.0453499 0
0.0682271 -0.0444431 0
0.0675544 -0.043511 0
0.0668527 -0.0425546 0
0.0661215 -0.0415748 0
0.06536 -0.040573 0
0.0645676 -0.0395504 0
0.0637439 -0.0385087 0
0.0628887 -0.0374493 0
0.062002 -0.0363741 0
0.0610838 -0.0352847 0
0.0601345 -0.0341831 0
0.0591547 -0.033071 0
0.0581456 -0.0319502 0
0.0571083 -0.0308224 0
0.0560444 -0.0296893 0
0.0549562 -0.028552 0
0.053845 -0.0274126 0
0.0527113 -0.0262746 0
0.051554 -0.0251427 0
0.0503724 -0.0240222 0
0.0491675 -0.0229164 0
0.047941 -0.0218282 0
0.0466955 -0.0207597 0
0.0454337 -0.0197126 0
0.0441592 -0.0186878 0
0.0428751 -0.0176863 0
0.0415841 -0.0167097 0
0.0402878 -0.0157609 0
0.0389879 -0.0148428 0
0.0376864 -0.0139575 0
0.0363853 -0.013107 0
0.0350871 -0.0122931 0
0.0337942 -0.0115164 0
0.0325095 -0.0107772 0
0.0312357 -0.0100756 0
0.0299758 -0.00941024 0
0.0287337 -0.00877784 0
0.0275126 -0.00817571 0
0.0263139 -0.00760375 0
0.0251376 -0.00706528 0
0.0239829 -0.0065649 0
0.0228537 -0.00609619 0
0.0217522 -0.00565563 0
0.0206795 -0.00524226 0
0.0196364 -0.00485507 0
0.0186233 -0.00449318 0
0.0176408 -0.00415577 0
0.016689 -0.00384204 0
0.0157682 -0.00355115 0
0.0148783 -0.00328218 0
0.0140192 -0.00303468 0
0.0131906 -0.00280795 0
0.0123925 -0.00260016 0
0.0116246 -0.00241012 0
0.0108864 -0.00223769 0
0.0101774 -0.00208212 0
0.00949701 -0.00194206 0
0.00884483 -0.0018163 0
0.0082202 -0.0017039 0
0.00762247 -0.00160391 0
0.00705097 -0.00151528 0
0.006505 -0.00143697 0
0.0059838 -0.00136806 0
0.00548662 -0.00130772 0
0.00501265 -0.00125519 0
0.00456114 -0.00120954 0
0.00413136 -0.00116914 0
0.00372257 -0.00113251 0
0.00333398 -0.00109853 0
0.00296466 -0.00106798 0
0.00261363 -0.0010431 0
-0.052721 -0.0445996 0
-0.0508204 -0.0440823 0
-0.0489199 -0.0435651 0
-0.0470193 -0.0430478 0
-0.0451187 -0.0425306 0
-0.0432181 -0.0420134 0
-0.0413175 -0.0414961 0
-0.039417 -0.0409789 0
-0.0375164 -0.0404616 0
-0.0356158 -0.0399444 0
-0.0337152 -0.0394271 0
-0.0318146 -0.0389099 0
-0.0299141 -0.0383927 0
-0.0280135 -0.0378754 0
-0.0261129 -0.0373582 0
-0.0242123 -0.0368409 0
-0.0223117 -0.0363237 0
-0.0204112 -0.0358065 0
-0.0185106 -0.0352892 0
-0.01661 -0.034772 0
-0.0147094 -0.0342547 0
-0.0128088 -0.0337375 0
-0.0109083 -0.0332202 0
-0.00900769 -0.032703 0
-0.00710711 -0.0321858 0
-0.00520653 -0.0316685 0
-0.00330595 -0.0311513 0
-0.00140537 -0.030634 0
0.00190689 -0.0299614 0
0.00332271 -0.0298498 0
0.00474133 -0.0297825 0
0.00616136 -0.0297597 0
0.0075814 -0.0297814 0
0.00900007 -0.0298477 0
0.010416 -0.0299583 0
0.0118278 -0.0301127 0
0.0132342 -0.0303103 0
0.0146339 -0.0305504 0
0.0160259 -0.0308322 0
0.0174091 -0.0311546 0
0.0187824 -0.0315166 0
0.020145 -0.031917 0
0.0214961 -0.0323546 0
0.0228351 -0.032828 0
0.0241613 -0.0333361 0
0.0254744 -0.0338774 0
0.0267738 -0.0344507 0
0.0280592 -0.0350545 0
0.0293306 -0.0356877 0
0.0305875 -0.0363488 0
0.0318301 -0.0370367 0
0.0330581 -0.0377501 0
0.0342717 -0.0384879 0
0.0354708 -0.0392489 0
0.0366556 -0.0400321 0
0.0378262 -0.0408363 0
0.0389828 -0.0416607 0
0.0401254 -0.0425042 0
0.0412543 -0.0433659 0
0.0423698 -0.0442451 0
0.043472 -0.0451408 0
0.0445612 -0.0460523 0
0.0456375 -0.0469789 0
0.0467013 -0.0479199 0
0.0477529 -0.0488746 0
0.0487923 -0.0498424 0
0.04982 -0.0508227 0
0.0508362 -0.051815 0
0.051841 -0.0528187 0
0.0528348 -0.0538333 0
0.0538178 -0.0548584 0
0.0547903 -0.0558935 0
0.0557524 -0.0569382 0
0.0567045 -0.0579922 0
0.0576467 -0.0590549 0
0.0585792 -0.0601261 0
0.0595024 -0.0612055 0
0.0604163 -0.0622926 0
0.0613212 -0.0633873 0
0.0622174 -0.0644891 0
0.0631049 -0.0655979 0
0.0639841 -0.0667134 0
0.064855 -0.0678353 0
0.0657179 -0.0689633 0
0.0665729 -0.0700974 0
0.0674202 -0.0712372 0
0.06826 -0.0723826 0
0.0690925 -0.0735333 0
0.0699178 -0.0746892 0
0.070736 -0.0758501 0
0.0715473 -0.0770159 0
0.0723518 -0.0781863 0
0.0731498 -0.0793612 0
0.0739412 -0.0805405 0
0.0747264 -0.081724 0
0.0755053 -0.0829116 0
0.0762781 -0.0841033 0
0.0770449 -0.0852987 0
0.0778059 -0.0864979 0
0.0785611 -0.0877007 0
0.0793108 -0.088907 0
0.0814681 -0.0912706 0
0.0828814 -0.0924245 0
0.0842946 -0.0935783 0
0.0857079 -0.0947322 0
0.0871211 -0.095886 0
0.0885344 -0.0970399 0
0.0899476 -0.0981937 0
0.0913609 -0.0993476 0
0.0927741 -0.100501 0
0.0941874 -0.101655 0
0.0956006 -0.102809 0
0.0970139 -0.103963 0
0.0984272 -0.105117 0
0.0998404 -0.106271 0
0.101254 -0.107424 0
0.102667 -0.108578 0
0.10408 -0.109732 0
0.105493 -0.110886 0
0.106907 -0.11204 0
0.10832 -0.113194 0
0.109733 -0.114348 0
0.111146 -0.115501 0
0.11256 -0.116655 0
0.113973 -0.117809 0
0.115386 -0.118963 0
0.116799 -0.120117 0
0.118213 -0.121271 0
0.119626 -0.122424 0
0.121039 -0.123578 0
0.122452 -0.124732 0
0.123866 -0.125886 0
0.125279 -0.12704 0
0.126692 -0.128194 0
0.128105 -0.129348 0
0.129519 -0.130501 0
0.130932 -0.131655 0
0.132345 -0.132809 0
0.133758 -0.133963 0
0.135172 -0.133216 0
0.135172 -0.131316 0
0.135172 -0.129415 0
0.135172 -0.127514 0
0.135172 -0.125614 0
0.135172 -0.123713 0
0.135172 -0.121813 0
0.135172 -0.119912 0
0.135172 -0.118012 0
0.135172 -0.116111 0
0.135172 -0.11421 0
0.135172 -0.11231 0
0.135172 -0.110409 0
0.135172 -0.108509 0
0.135172 -0.106608 0
0.135172 -0.104708 0
0.135172 -0.102807 0
0.135172 -0.100906 0
0.135172 -0.0990058 0
0.135172 -0.0971052 0
0.135172 -0.0952046 0
0.135172 -0.0933041 0
0.135172 -0.0914035 0
0.135172 -0.0895029 0
0.135172 -0.0876023 0
0.135172 -0.0857017 0
0.135172 -0.0838012 0
0.135172 -0.0819006 0
0.133758 -0.0788462 0
0.132345 -0.0776923 0
0.130932 -0.0765385 0
0.129519 -0.0753846 0
0.128105 -0.0742308 0
0.126692 -0.0730769 0
0.125279 -0.0719231 0
0.123866 -0.0707692 0
0.122452 -0.0696154 0
0.121039 -0.0684615 0
0.119626 -0.0673077 0
0.118213 -0.0661538 0
0.116799 -0.065 0
0.115386 -0.0638462 0
0.113973 -0.0626923 0
0.11256 -0.0615385 0
0.111146 -0.0603846 0
0.109733 -0.0592308 0
0.10832 -0.0580769 0
0.106907 -0.0569231 0
0.105493 -0.0557692 0
0.10408 -0.0546154 0
0.102667 -0.0534615 0
0.101254 -0.0523077 0
0.0998404 -0.0511538 0
0.0984272 -0.05 0
0.0970139 -0.0488462 0
0.0956006 -0.0476923 0
[...]
CELL_DATA 13116
SCALARS rho float
LOOKUP_TABLE default
0.5977
0.5977
0.5977
0.5977
0.5977
0.680461
0.543854
0.5977
0.5977
0.5977
0.475756
0.5977
0.5977
0.597697
0.5977
0.680253
0.5977
0.5977
0.595779
0.454876
0.5977
0.5977
0.5977
0.5977
0.5977
0.5977
0.5977
0.5977
0.5977
0.5977
0.680555
0.5977
0.5977
0.5977
0.560859
0.5977
0.5977
0.5977
0.68012
0.5977
0.676546
0.5977
0.5977
0.5977
0.597704
0.597465
0.5977
0.597702
0.5977
0.5977
0.5977
0.5977
0.597285
0.5977
0.5977
0.5977
0.5977
0.5977
0.5977
0.5977
0.597698
0.5977
0.5977
0.680152
0.680314
0.597724
0.597557
0.5977
0.597465
0.680046
0.5977
0.5977
0.5977
0.597699
0.680277
0.597705
0.5977
0.5977
0.491636
0.5977
0.5977
0.5977
0.5977
0.5977
0.5977
0.5977
0.577447
0.5977
0.5977
0.357861
0.5977
0.5977
0.5977
0.5977
0.5977
0.5977
0.5977
0.679395
0.680266
0.5977
0.5977
0.5977
0.663882
0.5977
0.5977
0.5977
0.5977
0.5977
0.5977
0.5977
0.5977
0.5977
0.5977
0.5977
0.5977
0.593519
0.597655
0.5977
0.5977
0.597701
0.5977
0.5977
0.597689
0.5977
0.5977
0.5977
0.588889
0.5977
0.5977
0.5977
0.5977
0.5977
0.5977
0.5977
0.5977
0.5977
0.5509
0.5977
0.5977
0.597701
0.5977
0.5977
0.5977
0.5977
0.5977
0.5977
0.554023
0.5977
0.5977
0.5977
0.5977
0.5977
0.5977
0.586009
0.5977
0.5977
0.5977
0.5977
0.679898
0.5977
0.5977
0.477831
0.5977
0.5977
0.5977
0.5977
0.5977
0.5977
0.554513
0.5977
0.5977
0.554595
0.5977
0.5977
0.597931
0.5977
0.5977
0.5977
0.5977
0.680472
0.415566
0.5977
0.5977
0.5977
0.680224
0.5977
0.584697
0.676593
0.5977
0.5977
0.5977
0.5977
0.680067
0.5977
0.5977
0.680726
0.5977
0.663936
0.5977
0.5977
0.5977
0.5977
0.5977
0.5977
0.5977
0.5977
0.5977
0.5977
0.5977
0.426102
0.597715
0.678986
0.5977
0.371632
0.362027
0.593017
0.5977
0.679777
0.5977
0.5977
0.5977
0.616933
0.5977
0.410597
0.5977
0.5977
0.5977
0.5977
0.60166
0.5977
0.5977
0.5977
0.680816
0.5977
0.679692
0.5977
0.679884
0.5977
0.5977
0.5977
0.680254
0.681168
0.5824
0.680209
0.5977
0.5977
0.5977
0.5977
0.680212
0.516622
0.5977
0.5977
0.5977
0.680705
0.5977
0.5977
0.5977
0.46663
0.5977
0.5977
0.5977
0.5977
0.5977
0.5977
0.532429
0.597701
0.597497
0.5977
0.5977
0.513907
0.5977
0.5977
0.679174
0.5977
0.5977
0.675664
0.5977
0.68015
0.5977
0.470848
0.557283
0.5977
0.5977
0.5977
0.5977
0.5977
0.5977
0.5977
0.597734
0.5977
0.5977
0.559396
0.445057
0.595647
0.5977
0.5977
0.5977
0.5977
0.5977
0.503377
0.678365
0.5977
0.5977
0.5977
0.680216
0.5977
0.674918
0.592011
0.680563
0.5977
0.5977
0.5977
0.5977
0.5977
0.5977
0.619561
0.597696
0.681149
0.5977
0.5977
0.380973
0.5977
0.5977
0.59533
0.5977
0.5977
0.5977
0.5977
0.5977
0.579651
0.5977
0.5977
0.597696
0.5977
0.5977
0.5977
0.5977
0.5977
0.5977
0.531621
0.5977
0.5977
0.680106
0.5977
0.5977
0.5977
0.5977
0.5977
0.578529
0.5977
0.5977
0.5977
0.560735
0.579289
0.5977
0.5977
0.5977
0.5977
0.570387
0.5977
0.5977
0.5977
0.539635
0.5977
0.597724
0.5977
0.597659
0.5977
0.5977
0.358416
0.5977
0.680214
0.680434
0.5977
0.5977
0.5977
0.5977
0.5977
0.41679
0.680244
0.408794
0.5977
0.5977
0.5977
0.5977
0.5977
0.5977
0.566932
0.5977
0.5977
0.5977
0.5977
0.592875
0.5977
0.5977
0.5977
0.549594
0.5977
0.5977
0.5977
0.5977
0.65113
0.5977
0.5977
0.5977
0.5977
0.5977
0.5977
0.5977
0.5977
0.680787
0.5977
0.5977
0.5977
0.5977
0.5977
0.5977
0.596343
0.593326
0.680098
0.5977
0.421547
0.367693
0.564568
0.5977
0.597722
0.5977
0.674689
0.597723
0.5977
0.358228
0.680537
0.5977
0.5977
0.5977
0.5977
0.5977
0.358483
0.56339
0.358154
0.5977
0.551273
0.412052
0.5977
0.5977
0.410149
0.5977
0.5977
0.5977
0.5977
0.5977
0.5977
0.5977
0.358118
0.5977
0.597701
0.5977
0.5977
0.5977
0.597726
0.5977
0.5977
0.5977
0.5977
0.5977
0.5977
0.547704
0.680095
0.5977
0.5977
0.680441
0.5977
0.597733
0.5977
0.5977
0.5977
0.5977
0.5977
0.5977
0.5977
0.445518
0.5977
0.597698
0.5977
0.5977
0.597717
0.5977
0.597696
0.5977
0.5977
0.5977
0.5977
0.5977
0.5977
0.5977
0.597733
0.5977
0.5977
0.5977
0.5977
0.5977
0.5977
0.597703
0.5977
0.5977
0.5977
0.597594
0.5977
0.5977
0.680517
0.5977
0.5977
0.5977
0.395748
0.5977
0.5977
0.5977
0.5977
0.5977
0.5977
0.5977
0.5977
0.5977
0.5977
0.5977
0.5977
0.5977
0.592717
0.36849
0.597701
0.5977
0.5977
0.360504
0.5977
0.5977
0.5977
0.5977
0.5977
0.373528
0.680415
0.5977
0.5977
0.5977
0.59773
0.5977
0.358304
0.358529
0.5977
0.387352
0.5977
0.597699
0.5977
0.5977
0.5977
0.5977
0.592199
0.5977
0.358409
0.417811
0.5977
0.5977
0.5977
0.5977
0.5977
0.5977
0.569052
0.5977
0.680981
0.5977
0.365042
0.5977
0.5977
0.5977
0.661576
0.5977
0.5977
0.5977
0.5977
0.5977
0.5977
0.5977
0.5977
0.5977
0.679948
0.5977
0.5977
0.5977
0.5977
0.597738
0.600058
0.5977
0.680383
0.5977
0.358423
0.5977
0.5977
0.680145
0.5977
0.527141
0.5977
0.680597
0.5977
0.517516
0.5977
0.363315
0.679707
0.5977
0.680973
0.5977
0.5977
0.5977
0.5977
0.5977
0.5977
0.5977
0.5977
0.5977
0.597602
0.597702
0.680113
0.59771
0.680433
0.5977
0.680404
0.358822
0.5977
0.5977
0.5977
0.680101
0.5977
0.597176
0.5977
0.680299
0.5977
0.5977
0.476218
0.5977
0.5977
0.572781
0.680989
0.5977
0.590062
0.5977
0.5977
0.5977
0.677004
0.597701
0.5977
0.5977
0.502745
0.5977
0.5977
0.5977
0.597741
0.470453
0.5977
0.5977
0.5977
0.5977
0.676768
0.469176
0.5977
0.5977
0.5977
0.5977
0.5977
0.5977
0.653132
0.5977
0.5977
0.5977
0.5977
0.614478
0.5977
0.5977
0.5977
0.5977
0.5977
0.5977
0.5977
0.5977
0.5977
0.5977
0.681101
0.5977
0.5977
0.5977
0.5977
0.5977
0.5977
0.5977
0.5977
0.597699
0.680471
0.5977
0.5977
0.680895
0.5977
0.5977
0.5977
0.5977
0.5977
0.5977
0.5977
0.5977
0.597699
0.558434
0.5977
0.597702
0.5977
0.37248
0.5977
0.5977
0.5977
0.5977
0.5977
0.419505
0.5977
0.5977
0.444186
0.5977
0.5977
0.5977
0.5977
0.5977
0.5977
0.5977
0.5977
0.5977
0.680557
0.5977
0.371822
0.5977
0.5977
0.5977
0.5977
0.679515
0.5977
0.5977
0.430537
0.5977
0.5977
0.5977
0.5977
0.680642
0.5977
0.5977
0.5977
0.5977
0.5977
0.358438
0.358294
0.527171
0.405109
0.5977
0.5977
0.680673
0.5977
0.428172
0.596935
0.5977
0.597695
0.5977
0.5977
0.5977
0.662262
0.5977
0.5977
0.41555
0.358422
0.623033
0.5977
0.373415
0.597735
0.67968
0.5977
0.35815
0.5977
0.5977
0.5977
0.680127
0.677821
0.597735
0.597697
0.512208
0.5977
0.5977
0.5977
0.5977
0.5977
0.5977
0.661424
0.5977
0.358509
0.5977
0.358468
0.67938
0.5977
0.679736
0.5977
0.357979
0.5977
0.680313
0.5977
0.597696
0.5977
0.679936
0.5977
0.5977
0.5977
0.662134
0.5977
0.412065
0.679131
0.680546
0.5977
0.5977
0.555902
0.5977
0.669096
0.5977
0.597709
0.5977
0.358593
0.679667
0.5977
0.358474
0.5977
0.5977
0.5977
0.5977
0.5977
0.5977
0.5977
0.5977
0.5977
0.5977
0.361565
0.5977
0.680059
0.5977
0.5977
0.5977
0.5977
0.5977
0.5977
0.5977
0.637034
0.542293
0.5977
0.5977
0.5977
0.680747
0.368584
0.5977
0.5977
0.5977
0.5977
0.656296
0.5977
0.5977
0.597697
0.5977
0.5977
0.5977
0.5977
0.5977
0.679654
0.5977
0.5977
0.5977
0.5977
0.5977
0.594219
0.5977
0.358393
0.5977
0.5977
0.5977
0.5977
0.661675
0.5977
0.5977
0.5977
0.5977
0.5977
0.617856
0.680364
0.5977
0.5977
0.680098
0.5977
0.5977
0.5977
0.5977
0.5977
0.5977
0.5977
0.5977
0.5977
0.5977
0.5977
0.593029
0.552142
0.474372
0.5977
0.5977
0.5977
0.5977
0.5977
0.5977
0.5977
0.680902
0.680293
0.5977
0.67973
0.5977
0.5977
0.5977
0.5977
0.5977
0.679808
0.595661
0.5977
0.680207
0.5977
0.5977
0.5977
0.5977
0.5977
0.358291
0.677817
0.51207
0.5977
0.597737
0.5977
0.5977
0.5977
0.5977
0.5977
0.5977
0.5977
0.679752
0.437494
0.5977
0.5977
0.5977
0.5977
0.680173
0.5977
0.679705
0.5977
0.5977
0.5977
0.595922
0.5977
0.358292
0.5977
0.5977
0.595501
0.679959
0.571754
0.5977
0.5977
0.5977
0.5977
0.358238
0.5977
0.584074
0.5977
0.680546
0.597706
0.679479
0.5977
0.5977
0.597699
0.5977
0.5977
0.5977
0.5977
0.5977
0.63579
0.680716
0.536804
0.5977
0.5977
0.541577
0.5977
0.597697
0.5977
0.5977
0.365095
0.5977
0.5977
0.5977
0.5977
0.560828
0.560565
0.5977
0.5977
0.59772
0.680294
0.5977
0.5977
0.5977
0.5977
0.5977
0.424414
0.5977
0.487493
0.5977
0.5977
0.5977
0.597715
0.5977
0.5977
0.597701
0.5977
0.5977
0.5977
0.668609
0.5977
0.5977
0.597707
0.470192
0.5977
0.680724
0.5977
0.5977
0.5977
0.680473
0.5977
0.5977
0.597451
0.5977
0.5977
0.530214
0.5977
0.5977
0.5977
0.5977
0.5977
0.679898
0.5977
0.5977
0.365679
0.5977
0.5977
0.597733
0.5977
0.553934
0.5977
0.57515
0.677913
0.404327
0.5977
0.5977
0.361322
0.5977
0.5977
0.5977
0.68052
0.5977
0.5977
0.5977
0.5977
0.5977
0.5977
0.358998
0.597696
0.529324
0.5977
0.5977
0.5977
0.5977
0.5977
0.680612
0.5977
0.597697
0.5977
0.5977
0.680532
0.495317
0.680289
0.5977
0.5977
0.5977
0.5977
0.5977
0.5977
0.5977
0.5977
0.68051
0.5977
0.5977
0.5977
0.5977
0.358277
0.680553
0.5977
0.5977
0.5977
0.5977
0.5977
0.5977
0.5977
0.5977
0.531094
0.5977
0.5977
0.5977
0.5977
0.5977
0.5977
0.5977
0.5977
0.5977
0.5977
0.680244
0.5977
0.517363
0.5977
0.5977
0.5977
0.5977
0.5977
0.5977
0.5977
0.597701
0.5977
0.679438
0.5977
0.5977
0.5977
0.5977
0.5977
0.5977
0.5977
0.5977
0.68022
0.5977
0.5977
0.558531
0.5977
0.580749
0.5977
0.5977
0.680581
0.5977
0.5977
0.597699
0.5977
0.5977
0.672553
0.5977
0.5977
0.5977
0.434294
0.5977
0.5977
0.5977
0.5977
0.5977
0.680231
0.5977
0.5977
0.5977
0.5977
0.680172
0.5928
0.5977
0.5977
0.5977
0.5977
0.5977
0.5977
0.5977
0.5977
0.5977
0.680064
0.5977
0.5977
0.5977
0.5977
0.679947
0.681133
0.5977
0.5977
0.679639
0.5977
0.5977
0.539823
0.5977
0.559283
0.5977
0.5977
0.360184
0.361711
0.5977
0.647005
0.5977
0.5977
0.60847
0.5977
0.5977
0.393909
0.5977
0.5977
0.679369
0.5977
0.5977
0.680754
0.5977
0.680277
0.680354
0.5977
0.5977
0.5977
0.5977
0.5977
0.5977
0.5977
0.5977
0.438508
0.5977
0.5977
0.656875
0.597712
0.5977
0.5977
0.67678
0.435535
0.5977
0.5977
0.553814
0.5977
0.679966
0.402905
0.5977
0.392627
0.5977
0.5977
0.5977
0.5977
0.5977
0.5977
0.57208
0.49766
0.5977
0.680503
0.5977
0.5977
0.59773
0.573232
0.597697
0.5977
0.5977
0.5977
0.5977
0.5977
0.5977
0.5977
0.5977
0.5977
0.5977
0.5977
0.426705
0.67984
0.679969
0.597697
0.5977
0.5977
0.5977
0.5977
0.5977
0.5977
0.5977
0.5977
0.5977
0.376659
0.680416
0.5977
0.357872
0.5977
0.597729
0.597702
0.5977
0.5977
0.5977
0.5977
0.5977
0.5977
0.5977
0.597701
0.5977
0.680557
0.591997
0.5977
0.5977
0.5977
0.680627
0.5977
0.59488
0.5977
0.5977
0.5977
0.5977
0.5977
0.65569
0.680402
0.5977
0.679669
0.5977
0.680225
0.597738
0.597731
0.358383
0.5977
0.525372
0.59771
0.5977
0.5977
0.597719
0.5977
0.5977
0.5977
0.359154
0.680396
0.680282
0.5977
0.585375
0.5977
0.5977
0.680525
0.5977
0.5977
0.563556
0.437677
0.679881
0.436238
0.5977
0.5977
0.635353
0.361174
0.5977
0.582592
0.5977
0.568277
0.5977
0.5977
0.66182
0.5977
0.399966
0.5977
0.5977
0.5977
0.358618
0.558233
0.5977
0.68011
0.5977
0.464557
0.5977
0.5977
0.5977
0.5977
0.5977
0.5977
0.5977
0.5977
0.5977
0.5977
0.507668
0.5977
0.597702
0.5977
0.5977
0.680327
0.361932
0.5977
0.5977
0.5977
0.680416
0.427195
0.5977
0.5977
0.5977
0.5977
0.5977
0.419568
0.5977
0.647805
0.680409
0.5977
0.5977
0.5977
0.5977
0.5977
0.680566
0.680722
0.5977
0.5977
0.679956
0.5977
0.5977
0.5977
0.5977
0.5977
0.680177
0.5977
0.644028
0.5977
0.373555
0.5977
0.5977
0.358666
0.5977
0.5977
0.597698
0.5977
0.594876
0.5977
0.5977
0.5977
0.5977
0.5977
0.597698
0.680125
0.5977
0.657099
0.596286
0.5977
0.633447
0.5977
0.678043
0.5977
0.680387
0.5977
0.5977
0.5977
0.5977
0.464632
0.5977
0.597718
0.367539
0.5977
0.5977
0.5977
0.5977
0.67943
0.5977
0.680447
0.5977
0.5977
0.5977
0.5977
0.358216
0.67589
0.5977
0.5977
0.5977
0.5977
0.5977
0.5977
0.5977
0.5977
0.679585
0.5977
0.5977
0.5977
0.5977
0.5977
0.5977
0.5977
0.486735
0.5977
0.5977
0.5977
0.5977
0.5977
0.5977
0.67953
0.5977
0.5977
0.5977
0.498259
0.5977
0.5977
0.5977
0.5977
0.5977
0.5977
0.680256
0.399742
0.597696
0.5977
0.5977
0.5977
0.5977
0.5977
0.600574
0.5977
0.5977
0.5977
0.5977
0.5977
0.597697
0.5977
0.5977
0.5977
0.67877
0.5977
0.5977
0.5977
0.5977
0.5977
0.5977
0.5977
0.59767
0.5977
0.67978
0.5977
0.5977
0.5977
0.5977
0.557456
0.5977
0.5977
0.578574
0.386825
0.5977
0.5977
0.358515
0.5977
0.597701
0.5977
0.514946
0.5977
0.5977
0.5977
0.5977
0.44002
0.5977
0.568138
0.358178
0.680678
0.357879
0.5977
0.5977
0.5977
0.521737
0.5977
0.5977
0.572197
0.5977
0.5977
0.5977
0.5977
0.5977
0.5977
0.5977
0.558521
0.5977
0.428033
0.680604
0.680172
0.5977
0.5977
0.5977
0.5977
0.680252
0.5977
0.5977
0.5977
0.431438
0.5977
0.597702
0.5977
0.5977
0.5977
0.5977
0.5977
0.5977
0.5977
0.5977
0.5977
0.597696
0.597697
0.5977
0.5977
0.5977
0.49546
0.5977
0.68028
0.5977
0.5977
0.5977
0.5977
0.358242
0.5977
0.5977
0.5977
0.5977
0.5977
0.5977
0.625703
0.5977
0.5977
0.5977
0.680365
0.5977
0.5977
0.5977
0.5977
0.575393
0.5977
0.5977
0.5977
0.5977
0.5977
0.5977
0.446567
0.6805
0.5977
0.410982
0.5977
0.5977
0.5977
0.5977
0.5977
0.5977
0.5977
0.5977
0.597253
0.5977
0.597697
0.464232
0.5977
0.680113
0.5977
0.431363
0.361922
0.5977
0.5977
0.591209
0.5977
0.363823
0.5977
0.593427
0.5977
0.5977
0.5977
0.5977
0.680318
0.5977
0.35857
0.546976
0.5977
0.401621
0.5977
0.5977
0.68047
0.597527
0.5977
0.373058
0.564368
0.440981
0.650441
0.5977
0.35816
0.5977
0.59774
0.595594
0.597743
0.555245
0.5977
0.5977
0.5977
0.5977
0.5977
0.5977
0.523675
0.5977
0.5977
0.5977
0.5977
0.5977
0.507306
0.357759
0.5977
0.463068
0.465612
0.5977
0.5977
0.5977
0.5977
0.5977
0.5977
0.5977
0.591735
0.680665
0.505962
0.5977
0.5977
0.5977
0.5977
0.5977
0.5977
0.597701
0.5977
0.5977
0.5977
0.5977
0.5977
0.5977
0.5977
0.5977
0.5977
0.648786
0.66543
0.5977
0.553387
0.5977
0.5977
0.5977
0.583406
0.680879
0.5977
0.5977
0.5977
0.597701
0.5977
0.5977
0.5977
0.5977
0.5977
0.580235
0.5977
0.510857
0.5977
0.498012
0.506925
0.5977
0.5977
0.5977
0.565828
0.5977
0.5977
0.360853
0.5977
0.5977
0.5977
0.5977
0.5977
0.5977
0.593677
0.5977
0.5977
0.5977
0.5977
0.5977
0.5977
0.357771
0.5977
0.5977
0.5977
0.594019
0.673524
0.5977
0.358057
0.5977
0.5977
0.5977
0.680451
0.594724
0.358162
0.5977
0.5977
0.5977
0.5977
0.5977
0.358073
0.395493
0.5977
0.5977
0.5977
0.5977
0.35819
0.5977
0.5977
0.5977
0.5977
0.5977
0.5977
0.680047
0.5977
0.597696
0.5977
0.596291
0.5977
0.5977
0.5977
0.5977
0.358208
0.420229
0.5977
0.386013
0.35825
0.5977
0.5977
0.597732
0.5977
0.597717
0.678122
0.5977
0.5977
0.680129
0.5977
0.680233
0.5977
0.425925
0.5977
0.680561
0.5977
0.5977
0.5977
0.5977
0.5977
0.679964
0.496495
0.5977
0.5977
0.680343
0.5977
0.566898
0.5977
0.379217
0.373862
0.5977
0.5977
0.5977
0.514539
0.5977
0.5977
0.5977
0.5977
0.5977
0.358283
0.5977
0.5977
0.5977
0.5977
0.5977
0.679752
0.597698
0.5977
0.597701
0.5977
0.358642
0.5977
0.5977
0.5977
0.5977
0.5977
0.5977
0.5977
0.5977
0.5977
0.5977
0.679773
0.592185
0.364648
0.5977
0.376761
0.5977
0.597701
0.5977
0.5977
0.5977
0.5977
0.5977
0.358361
0.5977
0.5977
0.5977
0.5977
0.435243
0.5977
0.5977
0.5977
0.517371
0.5977
0.652546
0.5977
0.5977
0.5977
0.5977
0.358235
0.5977
0.5977
0.5977
0.596457
0.357876
0.5977
0.5977
0.5977
0.5977
0.5977
0.679942
0.5977
0.5977
0.431146
0.5977
0.5977
0.5977
0.5977
0.5977
0.515178
0.5977
0.5977
0.5977
0.5977
0.5977
0.5977
0.5977
0.597692
0.5977
0.5977
0.5977
0.5977
0.532459
0.549324
0.5977
0.5977
0.5977
0.5977
0.5977
0.5977
0.358301
0.5977
0.679861
0.5977
0.543603
0.5977
0.5977
0.5977
0.5977
0.5977
0.5977
0.5977
0.5977
0.5977
0.576049
0.5977
0.558362
0.5977
0.5977
0.679975
0.675344
0.595265
0.5977
0.5977
0.679441
0.597727
0.662039
0.5977
0.395082
0.5977
0.5977
0.358453
0.528628
0.5977
0.5977
0.597699
0.5977
0.5977
0.5977
0.5977
0.5977
0.5977
0.680615
0.5977
0.5977
0.594864
0.5977
0.5977
0.428717
0.5977
0.5977
0.358329
0.5977
0.5977
0.680045
0.5977
0.595749
0.5977
0.5977
0.5977
0.651902
0.5977
0.5977
0.5977
0.5977
0.5977
0.5977
0.680259
0.5977
0.5977
0.384342
0.5977
0.5977
0.5977
0.5977
0.679946
0.388288
0.5977
0.51311
0.5977
0.5977
0.594124
0.5977
0.5977
0.403449
0.5977
0.5977
0.5977
0.675724
0.597731
0.5977
0.5977
0.5977
0.5977
0.5977
0.5977
0.5977
0.5977
0.5977
0.5977
0.5977
0.5977
0.5977
0.5977
0.5977
0.5977
0.680625
0.5977
0.5977
0.5977
0.5977
0.5977
0.362033
0.5977
0.5977
0.680259
0.5977
0.5977
0.5977
0.5977
0.5977
0.363312
0.519052
0.670241
0.679695
0.5977
0.5977
0.67935
0.357711
0.5977
0.5977
0.5977
0.5977
0.5977
0.5977
0.511848
0.5977
0.5977
0.5977
0.5977
0.5977
0.5977
0.5977
0.5977
0.5977
0.5977
0.5977
0.5977
0.5977
0.5977
0.5977
0.5977
0.5977
0.550166
0.5977
0.5977
0.5977
0.5977
0.5977
0.5977
0.5977
0.597702
0.5977
0.5977
0.358477
0.5977
0.5977
0.596877
0.5977
0.5977
0.565668
0.5977
0.365589
0.593148
0.5977
0.5977
0.5977
0.5977
0.5977
0.680544
0.5977
0.5977
0.5977
0.5977
0.6804
0.597734
0.404822
0.5977
0.5977
0.5977
0.5977
0.680066
0.5977
0.5977
0.5977
0.5977
0.680235
0.5977
0.364915
0.592966
0.5977
0.5977
0.5977
0.597702
0.5977
0.597699
0.5977
0.5977
0.5977
0.411692
0.5977
0.5977
0.5977
0.5977
0.66696
0.5977
0.5977
0.5977
0.5977
0.5977
0.5977
0.5977
0.5977
0.597664
0.5977
0.677715
0.68033
0.5977
0.5977
0.5977
0.5977
0.5977
0.5977
0.440335
0.5977
0.5977
0.5977
0.680062
0.5977
0.5977
0.358426
0.5977
0.5977
0.5977
0.5977
0.5977
0.5977
0.5977
0.5977
0.5977
0.5977
0.5977
0.364529
0.5977
0.5977
0.5977
0.5977
0.5977
0.5977
0.5977
0.5977
0.357764
0.43083
0.67958
0.5977
0.5977
0.5977
0.5977
0.5977
0.5977
0.67988
0.5977
0.358232
0.5977
0.358422
0.5977
0.5977
0.5977
0.5977
0.680262
0.5977
0.5977
0.5977
0.397106
0.5977
0.5977
0.5977
0.5977
0.5977
0.5977
0.680125
0.358153
0.556591
0.680317
0.455075
0.5977
0.5977
0.5977
0.358069
0.547017
0.5977
0.5977
0.597702
0.5977
0.5977
0.5977
0.5977
0.5977
0.5977
0.358491
0.5977
0.375246
0.5977
0.435353
0.5977
0.5977
0.5977
0.5977
0.535221
0.680091
0.597726
0.44089
0.5977
0.5977
0.5977
0.5977
0.5977
0.5977
0.679855
0.5977
0.5977
0.5977
0.5977
0.5977
0.421214
0.5977
0.680043
0.5977
0.358049
0.5977
0.5977
0.5977
0.5977
0.5977
0.5977
0.5977
0.5977
0.5977
0.5977
0.5977
0.5977
0.5977
0.5977
0.379736
0.5977
0.5977
0.412904
0.5977
0.5977
0.5977
0.5977
0.5977
0.5977
0.5977
0.5977
0.5977
0.457081
0.5977
0.394072
0.5977
0.5977
0.451104
0.5977
0.680209
0.5977
0.5977
0.5977
0.5977
0.5977
0.5977
0.5977
0.5977
0.680791
0.5977
0.5977
0.5977
0.5977
0.5977
0.59848
0.5977
0.597698
0.5977
0.5977
0.5977
0.5977
0.365611
0.5977
0.5977
0.5977
0.5977
0.5977
0.5977
0.5977
0.5977
0.47637
0.5977
0.358231
0.5977
0.5977
0.596297
0.5977
0.5977
0.5977
0.5977
0.570535
0.5977
0.5977
0.5977
0.597698
0.59774
0.5977
0.5977
0.5977
0.597367
0.680265
0.5977
0.5977
0.680363
0.5977
0.571992
0.5977
0.5977
0.5977
0.5977
0.5977
0.569788
0.5977
0.5977
0.5977
0.5977
0.5977
0.5977
0.680403
0.5977
0.680409
0.5977
0.454741
0.680434
0.5977
0.5977
0.465884
0.358404
0.597734
0.5977
0.358262
0.597695
0.5977
0.5977
0.515452
0.5977
0.597693
0.5977
0.676689
0.5977
0.599294
0.5977
0.5977
0.5977
0.597702
0.5977
0.5977
0.597696
0.5977
0.5977
0.361298
0.5977
0.5977
0.5977
0.386553
0.680211
0.5977
0.5977
0.54522
0.5977
0.5977
0.358342
0.5977
0.5977
0.5977
0.5977
0.5977
0.5977
0.5977
0.5977
0.639227
0.5977
0.358608
0.5977
0.5977
0.5977
0.5977
0.5977
0.5977
0.392491
0.5977
0.680511
0.5977
0.5977
0.5977
0.5977
0.5977
0.5977
0.5977
0.5977
0.5977
0.375999
0.597043
0.5977
0.5977
0.5977
0.5977
0.5977
0.5977
0.5977
0.5977
0.5977
0.5977
0.380745
0.358571
0.5977
0.5977
0.555696
0.5977
0.5977
0.5977
0.5977
0.5977
0.5977
0.5977
0.375561
0.5977
0.5977
0.5977
0.5977
0.364495
0.5977
0.597697
0.5977
0.5977
0.5977
0.5977
0.359629
0.43659
0.5977
0.5977
0.679979
0.5977
0.370284
0.5977
0.362697
0.5977
0.597701
0.5977
0.451419
0.5977
0.680867
0.5977
0.5977
0.5977
0.5977
0.680449
0.5977
0.5977
0.5977
0.459566
0.5977
0.5977
0.555789
0.543848
0.5977
0.5977
0.5977
0.5977
0.5977
0.680692
0.679797
0.5977
0.5977
0.5977
0.5977
0.680379
0.597732
0.358567
0.5977
0.5977
0.5977
0.360056
0.680253
0.5977
0.5977
0.5977
0.5977
0.5977
0.5977
0.52405
0.680698
0.5977
0.494137
0.655577
0.5977
0.5977
0.5977
0.5977
0.5977
0.5977
0.456072
0.680221
0.5977
0.5977
0.358219
0.680183
0.5977
0.5977
0.5977
0.5977
0.597701
0.5977
0.5977
0.597655
0.5977
0.5977
0.5977
0.680012
0.5977
0.597701
0.5977
0.5977
0.5977
0.5977
0.5977
0.597697
0.454094
0.5977
0.5977
0.5977
0.679842
0.5977
0.5977
0.5977
0.5977
0.681277
0.5977
0.5977
0.5977
0.358435
0.593586
0.385285
0.5977
0.5977
0.5977
0.5977
0.5977
0.5977
0.5977
0.5977
0.589382
0.5977
0.576052
0.556199
0.599997
0.5977
0.5977
0.597696
0.676449
0.5977
0.5977
0.5977
0.597697
0.5977
0.378032
0.5977
0.680746
0.5977
0.5977
0.5977
0.5977
0.5977
0.5977
0.5977
0.5977
0.5977
0.404357