# vtk DataFile Version 1.0
unstructured grid
ascii
DATASET UNSTRUCTURED_GRID
points 13672 float
0.0796578 -0.059106 0
0.00128732 0.00159165 0
0.00227961 -0.00102548 0
0.0791586 -0.0598787 0
-0.0546216 0.01 0
0.000495206 0.025 0
0.0800549 -0.035 0
0.135172 -0.08 0
-0.0546216 -0.0451168 0
0.000495206 -0.0301168 0
0.0800549 -0.0901168 0
0.135172 -0.135117 0
-0.0546216 -0.0451168 -0.00551168
0.000495206 -0.0301168 -0.00551168
0.0800549 -0.0901168 -0.00551168
0.135172 -0.135117 -0.00551168
0.135172 -0.08 -0.00551168
0.0800549 -0.035 -0.00551168
0.000495206 0.025 -0.00551168
-0.0546216 0.01 -0.00551168
0.00128732 0.00159165 -0.00551168
0.00227961 -0.00102548 -0.00551168
0.0791586 -0.0598787 -0.00551168
0.0796578 -0.059106 -0.00551168
0.00165953 -0.000990923 0
0.00119576 -0.000874076 0
0.000866021 -0.000641801 0
0.000645147 -0.000349912 0
0.00052235 -1.7281e-05 0
0.00049972 0.000348016 0
0.000601632 0.000737716 0
0.000861774 0.0011403 0
0.00157235 0.00183217 0
0.00188647 0.00206725 0
0.00222612 0.00230203 0
0.00258713 0.00254351 0
0.00296826 0.00279524 0
0.00337118 0.00305664 0
0.00379785 0.00332658 0
0.00425045 0.00360349 0
0.00473139 0.00388521 0
0.0052432 0.00416895 0
0.0057881 0.00445204 0
0.00636753 0.00473281 0
0.00698281 0.00500961 0
0.00763526 0.00528058 0
0.00832616 0.00554366 0
0.00905691 0.00579603 0
0.00982918 0.00603333 0
0.0106445 0.00625033 0
0.0115038 0.00644128 0
0.0124073 0.00660297 0
0.0133543 0.00673414 0
0.0143444 0.00683382 0
0.0153769 0.00690031 0
0.0164512 0.00693173 0
0.0175666 0.00692547 0
0.0187219 0.00687822 0
0.0199156 0.00678477 0
0.0211454 0.00663864 0
0.0224084 0.00643275 0
0.0237018 0.00616676 0
0.0250249 0.00584739 0
0.026375 0.00547298 0
0.0277479 0.00503752 0
0.0291386 0.00453545 0
0.0305433 0.0039653 0
0.0319572 0.0033256 0
0.0333681 0.00260019 0
0.034775 0.00179799 0
0.0361793 0.000930615 0
0.0375798 3.12222e-06 0
0.0389689 -0.000988429 0
0.0403357 -0.00205109 0
0.041675 -0.00318283 0
0.0429849 -0.00437751 0
0.0442643 -0.00562904 0
0.0455126 -0.00693089 0
0.0467314 -0.00827518 0
0.0479204 -0.00965638 0
0.0490661 -0.0110799 0
0.0501515 -0.0125519 0
0.0511696 -0.0140695 0
0.0521492 -0.0156071 0
0.0531202 -0.0171411 0
0.0540851 -0.0186663 0
0.0550431 -0.0201798 0
0.0559923 -0.0216793 0
0.0569311 -0.0231626 0
0.0578582 -0.0246273 0
0.0587723 -0.0260715 0
0.0596721 -0.027493 0
0.0605563 -0.02889 0
0.0614241 -0.0302609 0
0.0622742 -0.0316042 0
0.063106 -0.0329183 0
0.0639186 -0.034202 0
0.0647113 -0.0354543 0
0.0654835 -0.0366743 0
0.0662345 -0.0378613 0
0.0669642 -0.0390145 0
0.0676726 -0.0401333 0
0.0683597 -0.0412172 0
0.0690246 -0.0422665 0
0.0696662 -0.0432819 0
0.0702841 -0.0442636 0
0.0708793 -0.0452111 0
0.0714538 -0.0461237 0
0.072009 -0.047001 0
0.0725452 -0.0478434 0
0.0730611 -0.0486524 0
0.073556 -0.0494294 0
0.0740291 -0.0501756 0
0.0744812 -0.0508916 0
0.0749138 -0.0515773 0
0.0753285 -0.0522331 0
0.0757266 -0.0528592 0
0.076109 -0.0534564 0
0.0764753 -0.0540264 0
0.0768243 -0.054571 0
0.0771553 -0.0550919 0
0.0774679 -0.0555901 0
0.0777617 -0.0560669 0
0.0780369 -0.056523 0
0.0782958 -0.0569578 0
0.0785421 -0.0573703 0
0.0787786 -0.0577603 0
0.0790073 -0.0581279 0
0.0792295 -0.058474 0
0.0794462 -0.0587995 0
0.0798803 -0.0594162 0
0.0800272 -0.0596588 0
0.0800357 -0.0598891 0
0.0799275 -0.0600784 0
0.0797205 -0.0601773 0
0.0794593 -0.0601051 0
0.0789155 -0.0596491 0
0.0786707 -0.0593963 0
0.0784111 -0.0591319 0
0.0781372 -0.0588542 0
0.0778566 -0.0585548 0
0.0775715 -0.0582308 0
0.0772803 -0.0578828 0
0.0769832 -0.0575099 0
0.0766822 -0.0571097 0
0.0763801 -0.0566796 0
0.0760759 -0.0562196 0
0.0757623 -0.0557337 0
0.0754359 -0.0552232 0
0.0750951 -0.0546879 0
0.0747379 -0.054128 0
0.0743626 -0.0535435 0
0.0739688 -0.0529338 0
0.0735559 -0.0522981 0
0.0731238 -0.0516357 0
0.0726718 -0.050946 0
0.0721991 -0.0502288 0
0.0717046 -0.049484 0
0.0711872 -0.0487117 0
0.0706461 -0.047912 0
0.0700804 -0.0470849 0
0.0694892 -0.0462308 0
0.0688718 -0.0453499 0
0.0682271 -0.0444431 0
0.0675544 -0.043511 0
0.0668527 -0.0425546 0
0.0661215 -0.0415748 0
0.06536 -0.040573 0
0.0645676 -0.0395504 0
0.0637439 -0.0385087 0
0.0628887 -0.0374493 0
0.062002 -0.0363741 0
0.0610838 -0.0352847 0
0.0601345 -0.0341831 0
0.0591547 -0.033071 0
0.0581456 -0.0319502 0
0.0571083 -0.0308224 0
0.0560444 -0.0296893 0
0.0549562 -0.028552 0
0.053845 -0.0274126 0
0.0527113 -0.0262746 0
0.051554 -0.0251427 0
0.0503724 -0.0240222 0
0.0491675 -0.0229164 0
0.047941 -0.0218282 0
0.0466955 -0.0207597 0
0.0454337 -0.0197126 0
0.0441592 -0.0186878 0
0.0428751 -0.0176863 0
0.0415841 -0.0167097 0
0.0402878 -0.0157609 0
0.0389879 -0.0148428 0
0.0376864 -0.0139575 0
0.0363853 -0.013107 0
0.0350871 -0.0122931 0
0.0337942 -0.0115164 0
0.0325095 -0.0107772 0
0.0312357 -0.0100756 0
0.0299758 -0.00941024 0
0.0287337 -0.00877784 0
0.0275126 -0.00817571 0
0.0263139 -0.00760375 0
0.0251376 -0.00706528 0
0.0239829 -0.0065649 0
0.0228537 -0.00609619 0
0.0217522 -0.00565563 0
0.0206795 -0.00524226 0
0.0196364 -0.00485507 0
0.0186233 -0.00449318 0
0.0176408 -0.00415577 0
0.016689 -0.00384204 0
0.0157682 -0.00355115 0
0.0148783 -0.00328218 0
0.0140192 -0.00303468 0
0.0131906 -0.00280795 0
0.0123925 -0.00260016 0
0.0116246 -0.00241012 0
0.0108864 -0.00223769 0
0.0101774 -0.00208212 0
0.00949701 -0.00194206 0
0.00884483 -0.0018163 0
0.0082202 -0.0017039 0
0.00762247 -0.00160391 0
0.00705097 -0.00151528 0
0.006505 -0.00143697 0
0.0059838 -0.00136806 0
0.00548662 -0.00130772 0
0.00501265 -0.00125519 0
0.00456114 -0.00120954 0
0.00413136 -0.00116914 0
0.00372257 -0.00113251 0
0.00333398 -0.00109853 0
0.00296466 -0.00106798 0
0.00261363 -0.0010431 0
-0.052721 -0.0445996 0
-0.0508204 -0.0440823 0
-0.0489199 -0.0435651 0
-0.0470193 -0.0430478 0
-0.0451187 -0.0425306 0
-0.0432181 -0.0420134 0
-0.0413175 -0.0414961 0
-0.039417 -0.0409789 0
-0.0375164 -0.0404616 0
-0.0356158 -0.0399444 0
-0.0337152 -0.0394271 0
-0.0318146 -0.0389099 0
-0.0299141 -0.0383927 0
-0.0280135 -0.0378754 0
-0.0261129 -0.0373582 0
-0.0242123 -0.0368409 0
-0.0223117 -0.0363237 0
-0.0204112 -0.0358065 0
-0.0185106 -0.0352892 0
-0.01661 -0.034772 0
-0.0147094 -0.0342547 0
-0.0128088 -0.0337375 0
-0.0109083 -0.0332202 0
-0.00900769 -0.032703 0
-0.00710711 -0.0321858 0
-0.00520653 -0.0316685 0
-0.00330595 -0.0311513 0
-0.00140537 -0.030634 0
0.00190689 -0.0299614 0
0.00332271 -0.0298498 0
0.00474133 -0.0297825 0
0.00616136 -0.0297597 0
0.0075814 -0.0297814 0
0.00900007 -0.0298477 0
0.010416 -0.0299583 0
0.0118278 -0.0301127 0
0.0132342 -0.0303103 0
0.0146339 -0.0305504 0
0.0160259 -0.0308322 0
0.0174091 -0.0311546 0
0.0187824 -0.0315166 0
0.020145 -0.031917 0
0.0214961 -0.0323546 0
0.0228351 -0.032828 0
0.0241613 -0.0333361 0
0.0254744 -0.0338774 0
0.0267738 -0.0344507 0
0.0280592 -0.0350545 0
0.0293306 -0.0356877 0
0.0305875 -0.0363488 0
0.0318301 -0.0370367 0
0.0330581 -0.0377501 0
0.0342717 -0.0384879 0
0.0354708 -0.0392489 0
0.0366556 -0.0400321 0
0.0378262 -0.0408363 0
0.0389828 -0.0416607 0
0.0401254 -0.0425042 0
0.0412543 -0.0433659 0
0.0423698 -0.0442451 0
0.043472 -0.0451408 0
0.0445612 -0.0460523 0
0.0456375 -0.0469789 0
0.0467013 -0.0479199 0
0.0477529 -0.0488746 0
0.0487923 -0.0498424 0
0.04982 -0.0508227 0
0.0508362 -0.051815 0
0.051841 -0.0528187 0
0.0528348 -0.0538333 0
0.0538178 -0.0548584 0
0.0547903 -0.0558935 0
0.0557524 -0.0569382 0
0.0567045 -0.0579922 0
0.0576467 -0.0590549 0
0.0585792 -0.0601261 0
0.0595024 -0.0612055 0
0.0604163 -0.0622926 0
0.0613212 -0.0633873 0
0.0622174 -0.0644891 0
0.0631049 -0.0655979 0
0.0639841 -0.0667134 0
0.064855 -0.0678353 0
0.0657179 -0.0689633 0
0.0665729 -0.0700974 0
0.0674202 -0.0712372 0
0.06826 -0.0723826 0
0.0690925 -0.0735333 0
0.0699178 -0.0746892 0
0.070736 -0.0758501 0
0.0715473 -0.0770159 0
0.0723518 -0.0781863 0
0.0731498 -0.0793612 0
0.0739412 -0.0805405 0
0.0747264 -0.081724 0
0.0755053 -0.0829116 0
0.0762781 -0.0841033 0
0.0770449 -0.0852987 0
0.0778059 -0.0864979 0
0.0785611 -0.0877007 0
0.0793108 -0.088907 0
0.0814681 -0.0912706 0
0.0828814 -0.0924245 0
0.0842946 -0.0935783 0
0.0857079 -0.0947322 0
0.0871211 -0.095886 0
0.0885344 -0.0970399 0
0.0899476 -0.0981937 0
0.0913609 -0.0993476 0
0.0927741 -0.100501 0
0.0941874 -0.101655 0
0.0956006 -0.102809 0
0.0970139 -0.103963 0
0.0984272 -0.105117 0
0.0998404 -0.106271 0
0.101254 -0.107424 0
0.102667 -0.108578 0
0.10408 -0.109732 0
0.105493 -0.110886 0
0.106907 -0.11204 0
0.10832 -0.113194 0
0.109733 -0.114348 0
0.111146 -0.115501 0
0.11256 -0.116655 0
0.113973 -0.117809 0
0.115386 -0.118963 0
0.116799 -0.120117 0
0.118213 -0.121271 0
0.119626 -0.122424 0
0.121039 -0.123578 0
0.122452 -0.124732 0
0.123866 -0.125886 0
0.125279 -0.12704 0
0.126692 -0.128194 0
0.128105 -0.129348 0
0.129519 -0.130501 0
0.130932 -0.131655 0
0.132345 -0.132809 0
0.133758 -0.133963 0
0.135172 -0.133216 0
0.135172 -0.131316 0
0.135172 -0.129415 0
0.135172 -0.127514 0
0.135172 -0.125614 0
0.135172 -0.123713 0
0.135172 -0.121813 0
0.135172 -0.119912 0
0.135172 -0.118012 0
0.135172 -0.116111 0
0.135172 -0.11421 0
0.135172 -0.11231 0
0.135172 -0.110409 0
0.135172 -0.108509 0
0.135172 -0.106608 0
0.135172 -0.104708 0
0.135172 -0.102807 0
0.135172 -0.100906 0
0.135172 -0.0990058 0
0.135172 -0.0971052 0
0.135172 -0.0952046 0
0.135172 -0.0933041 0
0.135172 -0.0914035 0
0.135172 -0.0895029 0
0.135172 -0.0876023 0
0.135172 -0.0857017 0
0.135172 -0.0838012 0
0.135172 -0.0819006 0
0.133758 -0.0788462 0
0.132345 -0.0776923 0
0.130932 -0.0765385 0
0.129519 -0.0753846 0
0.128105 -0.0742308 0
0.126692 -0.0730769 0
0.125279 -0.0719231 0
0.123866 -0.0707692 0
0.122452 -0.0696154 0
0.121039 -0.0684615 0
0.119626 -0.0673077 0
0.118213 -0.0661538 0
0.116799 -0.065 0
0.115386 -0.0638462 0
0.113973 -0.0626923 0
0.11256 -0.0615385 0
0.111146 -0.0603846 0
0.109733 -0.0592308 0
0.10832 -0.0580769 0
0.106907 -0.0569231 0
0.105493 -0.0557692 0
0.10408 -0.0546154 0
0.102667 -0.0534615 0
0.101254 -0.0523077 0
0.0998404 -0.0511538 0
0.0984272 -0.05 0
0.0970139 -0.0488462 0
0.0956006 -0.0476923 0
[...]
CELL_DATA 13116
SCALARS rho float
LOOKUP_TABLE default
0.657057
0.690597
0.353817
0.690766
0.703401
0.68646
0.353285
0.690067
0.562802
0.693939
0.354416
0.35112
0.701922
0.352929
0.372305
0.686434
0.659847
0.700489
0.691855
0.350605
0.650599
0.372813
0.358306
0.698055
0.676061
0.685176
0.694443
0.360541
0.584469
0.710483
0.613079
0.342905
0.567866
0.503654
0.353888
0.654344
0.70463
0.690527
0.685427
0.687803
0.692289
0.689904
0.523558
0.348813
0.690675
0.691687
0.683656
0.695429
0.385666
0.553186
0.689707
0.518771
0.349238
0.65911
0.568334
0.656567
0.348674
0.711583
0.556238
0.382202
0.353057
0.691632
0.687527
0.685468
0.645809
0.343629
0.687421
0.712777
0.691727
0.673234
0.370745
0.576987
0.368522
0.34732
0.554981
0.340693
0.690024
0.702061
0.352555
0.705847
0.704848
0.683886
0.70055
0.694875
0.688396
0.485239
0.347865
0.720967
0.687203
0.35715
0.35047
0.690984
0.696854
0.686595
0.706411
0.670787
0.677926
0.563364
0.560034
0.581512
0.724226
0.673508
0.69146
0.47107
0.681658
0.369695
0.455361
0.547013
0.35788
0.590735
0.583683
0.683524
0.669368
0.708682
0.703082
0.687439
0.346533
0.461385
0.700504
0.687634
0.71395
0.370818
0.692513
0.35017
0.686849
0.492429
0.347532
0.539247
0.355192
0.551568
0.700919
0.698218
0.519775
0.379984
0.509116
0.66774
0.558081
0.691315
0.725825
0.68751
0.681059
0.684175
0.540955
0.681597
0.687124
0.360106
0.354264
0.683388
0.70606
0.689578
0.547793
0.694515
0.69534
0.344245
0.698494
0.688678
0.35887
0.710496
0.568799
0.724052
0.700371
0.353875
0.709761
0.358311
0.369434
0.690978
0.68606
0.700536
0.353659
0.497971
0.48006
0.558149
0.371552
0.53395
0.687207
0.359952
0.368796
0.3702
0.682777
0.68565
0.353445
0.48617
0.628592
0.705689
0.686356
0.558084
0.342289
0.686306
0.678547
0.508795
0.687904
0.683084
0.679791
0.358375
0.681415
0.685539
0.694807
0.687116
0.687506
0.422975
0.472428
0.591093
0.536549
0.350766
0.702374
0.692866
0.524575
0.674595
0.372761
0.356358
0.33999
0.686468
0.3597
0.354822
0.356693
0.34305
0.449763
0.684563
0.686653
0.478613
0.347225
0.687421
0.569911
0.354031
0.547663
0.691737
0.686594
0.361281
0.68732
0.46597
0.689913
0.348341
0.678093
0.56906
0.550099
0.686782
0.684021
0.394974
0.48735
0.730173
0.555798
0.685186
0.558063
0.680125
0.690101
0.369363
0.689224
0.696128
0.559714
0.355374
0.386652
0.693056
0.700323
0.668201
0.697047
0.655652
0.715846
0.354329
0.403616
0.435768
0.370778
0.677696
0.694805
0.688532
0.349699
0.689533
0.341958
0.482218
0.682355
0.352474
0.684333
0.68942
0.558043
0.7113
0.39398
0.55817
0.706303
0.560476
0.693017
0.352457
0.347255
0.358967
0.667615
0.36857
0.384671
0.44423
0.42104
0.689898
0.350351
0.687964
0.697462
0.344902
0.350735
0.342741
0.498474
0.35932
0.71932
0.669917
0.682325
0.353189
0.688009
0.566714
0.398004
0.381539
0.686442
0.70014
0.686895
0.341517
0.6857
0.483059
0.697956
0.689793
0.689124
0.689758
0.358456
0.687442
0.359925
0.686745
0.692425
0.737396
0.354205
0.441641
0.693708
0.343498
0.686438
0.691537
0.403588
0.715543
0.702896
0.344809
0.68954
0.696393
0.356261
0.701239
0.481195
0.558467
0.689724
0.485378
0.71013
0.349326
0.705321
0.443354
0.681214
0.671993
0.695757
0.360379
0.454513
0.688517
0.346138
0.701149
0.679484
0.481256
0.558225
0.343004
0.360068
0.698543
0.550949
0.709618
0.346804
0.358916
0.688831
0.698841
0.354461
0.694511
0.346928
0.376593
0.687494
0.689879
0.575744
0.358296
0.697877
0.625415
0.686374
0.689231
0.706023
0.549959
0.373617
0.367387
0.352999
0.686218
0.35361
0.630566
0.409708
0.355556
0.451644
0.590986
0.186571
0.346864
0.688726
0.355194
0.708548
0.58642
0.692953
0.72317
0.691935
0.360212
0.347357
0.430669
0.385613
0.6993
0.667087
0.692309
0.586407
0.688102
0.675619
0.683597
0.679443
0.704979
0.704336
0.706098
0.686445
0.439592
0.524936
0.655848
0.368043
0.668858
0.657751
0.348906
0.687418
0.558065
0.359087
0.352262
0.355213
0.343888
0.595718
0.356505
0.358598
0.68677
0.342103
0.570664
0.356595
0.686779
0.700945
0.361809
0.37746
0.698459
0.497407
0.357217
0.343899
0.35803
0.35838
0.346967
0.352598
0.378028
0.484628
0.354811
0.672257
0.369235
0.688275
0.400041
0.348664
0.51456
0.362882
0.356976
0.363002
0.686805
0.488162
0.674547
0.565487
0.342445
0.673764
0.687241
0.483627
0.718924
0.674394
0.674141
0.346509
0.556698
0.464292
0.708979
0.584234
0.359503
0.351532
0.678468
0.386867
0.484512
0.673193
0.454559
0.712692
0.687384
0.350826
0.366534
0.365394
0.530674
0.379132
0.35203
0.370941
0.358414
0.691394
0.691746
0.502585
0.581491
0.511464
0.681266
0.442112
0.349554
0.563834
0.35964
0.696125
0.410592
0.459387
0.517383
0.690617
0.68549
0.555462
0.400343
0.351439
0.553449
0.689947
0.682595
0.551852
0.68153
0.677414
0.354864
0.700853
0.566853
0.733466
0.427535
0.359369
0.70851
0.696138
0.726459
0.692528
0.687146
0.686519
0.70543
0.738966
0.692807
0.357869
0.690384
0.445217
0.377284
0.355656
0.691182
0.692672
0.436711
0.688237
0.592122
0.354529
0.686093
0.699723
0.70377
0.360269
0.349128
0.701271
0.357577
0.358291
0.364002
0.355027
0.695105
0.354286
0.690387
0.368362
0.690758
0.689602
0.68876
0.699705
0.357623
0.352398
0.69416
0.690093
0.697443
0.691399
0.697065
0.507559
0.345239
0.359905
0.686017
0.5608
0.355229
0.498557
0.354902
0.688605
0.686538
0.428717
0.374606
0.688085
0.488533
0.689016
0.752104
0.354507
0.465377
0.694616
0.556341
0.358218
0.685199
0.686038
0.693646
0.342284
0.558153
0.347411
0.555138
0.733344
0.358328
0.446086
0.382467
0.553158
0.35789
0.35152
0.462609
0.686458
0.701284
0.351885
0.399685
0.356021
0.686082
0.369757
0.684941
0.359046
0.578437
0.692047
0.403981
0.358176
0.358258
0.50865
0.360006
0.685083
0.340022
0.352295
0.686989
0.356631
0.686529
0.685701
0.556056
0.358057
0.696247
0.70133
0.694855
0.686826
0.689239
0.687406
0.362642
0.676598
0.480815
0.694097
0.351824
0.690111
0.550424
0.353234
0.620433
0.705864
0.349242
0.679961
0.35082
0.368429
0.686583
0.686753
0.353343
0.362871
0.352311
0.359182
0.68882
0.698253
0.342807
0.349574
0.701321
0.688064
0.580201
0.704072
0.686678
0.354081
0.6951
0.483331
0.689615
0.459685
0.666334
0.504643
0.687381
0.709576
0.567118
0.438372
0.35998
0.686939
0.58286
0.655227
0.705944
0.367569
0.703304
0.699955
0.46441
0.52262
0.700769
0.406598
0.65479
0.730833
0.43851
0.688095
0.705303
0.356394
0.701787
0.358957
0.68775
0.343322
0.686452
0.686866
0.360835
0.68574
0.708986
0.701975
0.593464
0.698962
0.567703
0.400819
0.479833
0.351736
0.347659
0.55823
0.549734
0.688824
0.705948
0.357014
0.379952
0.699733
0.692238
0.698788
0.689669
0.352848
0.703517
0.696811
0.35108
0.351059
0.700518
0.69288
0.688004
0.342472
0.570238
0.362456
0.701745
0.685462
0.682244
0.691211
0.355077
0.695204
0.688078
0.696588
0.686662
0.692787
0.4796
0.705279
0.3565
0.680653
0.692455
0.497694
0.688297
0.684716
0.689502
0.482074
0.464153
0.569722
0.731486
0.357676
0.358308
0.350154
0.355051
0.692033
0.702796
0.682425
0.421617
0.354547
0.693259
0.719967
0.354475
0.382613
0.501773
0.701423
0.686646
0.689013
0.710951
0.35644
0.357822
0.558277
0.348894
0.35482
0.33952
0.688547
0.362047
0.357517
0.644468
0.694168
0.682602
0.685929
0.686435
0.345743
0.363467
0.350676
0.594117
0.489303
0.349714
0.711152
0.712628
0.687369
0.694806
0.325748
0.35813
0.692724
0.356615
0.692543
0.686469
0.586961
0.353459
0.358106
0.68683
0.619606
0.664445
0.355003
0.688635
0.685969
0.639856
0.689428
0.690064
0.558291
0.681207
0.352949
0.686567
0.652502
0.67719
0.702016
0.558202
0.68441
0.558471
0.694331
0.353131
0.357249
0.358059
0.623094
0.553177
0.356787
0.699232
0.701909
0.353221
0.684997
0.362889
0.689471
0.55655
0.394684
0.692084
0.698668
0.355534
0.544214
0.625965
0.351857
0.686608
0.346186
0.371692
0.674272
0.64623
0.51431
0.691626
0.348698
0.709712
0.363539
0.327735
0.686444
0.35507
0.67297
0.354916
0.684663
0.668182
0.558306
0.685674
0.368635
0.353344
0.676951
0.5298
0.698802
0.513534
0.66592
0.68661
0.696921
0.534665
0.589255
0.682064
0.694559
0.687138
0.447186
0.358321
0.541539
0.681582
0.695878
0.431618
0.691205
0.665009
0.428965
0.353622
0.73469
0.702572
0.558097
0.554697
0.674084
0.706079
0.686304
0.70505
0.356005
0.735614
0.499842
0.688755
0.692527
0.42728
0.689657
0.703454
0.35517
0.388801
0.343438
0.558196
0.353703
0.673756
0.704015
0.740284
0.416552
0.69035
0.352245
0.571091
0.6857
0.676688
0.711309
0.68608
0.683651
0.704536
0.562187
0.693618
0.344008
0.691902
0.689514
0.518415
0.55895
0.702219
0.358991
0.369334
0.352041
0.689193
0.358158
0.558217
0.349739
0.690038
0.352088
0.50511
0.363326
0.709153
0.689359
0.655655
0.408019
0.684339
0.684664
0.355674
0.580762
0.692073
0.347006
0.657159
0.571975
0.691595
0.693089
0.359461
0.544597
0.699943
0.692299
0.681585
0.357907
0.460686
0.689197
0.558222
0.557346
0.558251
0.644335
0.698374
0.640768
0.687999
0.357815
0.352213
0.558269
0.704525
0.686425
0.344399
0.691838
0.653674
0.669772
0.344284
0.476044
0.694752
0.688687
0.563105
0.379707
0.694107
0.558279
0.353535
0.650946
0.710104
0.353746
0.347578
0.361788
0.677667
0.375039
0.357925
0.689386
0.518071
0.694722
0.691273
0.353376
0.345992
0.690685
0.354171
0.35592
0.614494
0.374603
0.442697
0.663867
0.689311
0.696761
0.354813
0.364805
0.354808
0.686108
0.371096
0.696811
0.357483
0.698911
0.688108
0.690115
0.683237
0.695867
0.68511
0.686382
0.701213
0.697405
0.353038
0.355507
0.693837
0.686161
0.515754
0.680432
0.56911
0.686049
0.676089
0.361254
0.687721
0.692082
0.692542
0.355492
0.695691
0.361037
0.695055
0.508581
0.708816
0.688721
0.395259
0.699431
0.355626
0.497919
0.687764
0.33915
0.715244
0.558231
0.689611
0.343099
0.686848
0.355362
0.352521
0.355775
0.356848
0.675506
0.373645
0.683771
0.683889
0.382115
0.358391
0.50572
0.569272
0.682671
0.681751
0.358078
0.343443
0.354274
0.363463
0.403004
0.683243
0.684219
0.360732
0.684508
0.703555
0.360129
0.691888
0.720691
0.684716
0.355784
0.555654
0.698921
0.704691
0.68895
0.378529
0.697439
0.705253
0.695944
0.72602
0.687206
0.390821
0.356562
0.694551
0.538246
0.358221
0.686338
0.360332
0.559593
0.678739
0.687429
0.687897
0.35136
0.68032
0.431817
0.355551
0.717416
0.701883
0.706934
0.691109
0.701668
0.352667
0.697071
0.380409
0.51469
0.691221
0.554953
0.699479
0.355557
0.393412
0.693164
0.414991
0.700917
0.774374
0.484692
0.394415
0.687384
0.355332
0.690313
0.700613
0.695582
0.355529
0.357843
0.533945
0.56099
0.675277
0.516836
0.687066
0.681751
0.688676
0.558203
0.699714
0.351189
0.390584
0.701977
0.687253
0.680423
0.496172
0.348915
0.700267
0.369231
0.686582
0.591315
0.371615
0.699022
0.353786
0.688181
0.354395
0.706012
0.391252
0.694981
0.684535
0.343635
0.68687
0.727229
0.340307
0.679682
0.691169
0.569929
0.361567
0.42816
0.512511
0.699597
0.677181
0.377307
0.568005
0.700646
0.686846
0.418656
0.671433
0.689743
0.486451
0.687071
0.686723
0.429005
0.697409
0.570775
0.3525
0.669321
0.34545
0.68812
0.345481
0.373953
0.696066
0.357765
0.356249
0.366287
0.687384
0.687797
0.44565
0.693755
0.431301
0.695452
0.355539
0.689273
0.413874
0.686587
0.694979
0.691691
0.679109
0.545817
0.684207
0.684117
0.358649
0.683337
0.694961
0.628624
0.69927
0.508954
0.46499
0.699081
0.352792
0.570598
0.363401
0.692012
0.351705
0.358334
0.699301
0.686399
0.351345
0.688164
0.713852
0.558207
0.689771
0.558379
0.353301
0.692057
0.353611
0.358846
0.686224
0.710348
0.689847
0.688377
0.355642
0.344587
0.354576
0.690577
0.682928
0.428776
0.689562
0.344467
0.343731
0.341579
0.687549
0.461237
0.691557
0.697729
0.682541
0.686902
0.696972
0.655276
0.685983
0.482868
0.349522
0.351848
0.554222
0.555369
0.345702
0.682161
0.676566
0.687562
0.359445
0.486353
0.682433
0.387028
0.681175
0.671338
0.354423
0.681763
0.692644
0.35734
0.696338
0.355938
0.687814
0.695906
0.695701
0.370883
0.495477
0.722924
0.433789
0.48345
0.687739
0.435961
0.684195
0.68706
0.683958
0.714956
0.375764
0.613268
0.718644
0.692101
0.45667
0.694908
0.366963
0.35884
0.689244
0.686321
0.679848
0.342363
0.686565
0.676042
0.552416
0.343484
0.347382
0.357496
0.688298
0.353728
0.356962
0.354783
0.670147
0.35723
0.425326
0.485364
0.696567
0.355883
0.678893
0.682737
0.687671
0.342267
0.696874
0.721529
0.684917
0.477982
0.736135
0.35449
0.35332
0.686772
0.351246
0.680725
0.70129
0.558292
0.3558
0.441976
0.34981
0.552613
0.558088
0.344296
0.690718
0.687201
0.713818
0.356056
0.378257
0.446281
0.677591
0.356086
0.558201
0.586254
0.683627
0.689625
0.352787
0.681475
0.360182
0.668573
0.772121
0.692427
0.667256
0.635518
0.737176
0.681528
0.702207
0.347924
0.399196
0.34212
0.71047
0.56238
0.560581
0.355546
0.471243
0.707363
0.696728
0.666107
0.351806
0.687918
0.551465
0.555055
0.677804
0.359448
0.352162
0.429987
0.68624
0.684944
0.729212
0.680633
0.447488
0.689687
0.745365
0.685183
0.682695
0.689498
0.692094
0.685655
0.707897
0.707413
0.359716
0.698375
0.690771
0.686967
0.699388
0.686584
0.667291
0.35443
0.367952
0.67818
0.358086
0.377698
0.687612
0.362613
0.659785
0.692069
0.689583
0.692785
0.359657
0.687933
0.356386
0.34971
0.6858
0.697857
0.694947
0.340631
0.692732
0.691915
0.678154
0.686466
0.369499
0.687104
0.692392
0.693633
0.42563
0.709567
0.355187
0.688788
0.33938
0.354825
0.659963
0.496877
0.692002
0.710794
0.692936
0.354038
0.687156
0.448028
0.367229
0.685918
0.505235
0.357542
0.691934
0.383441
0.520223
0.716103
0.684046
0.687669
0.507201
0.577347
0.717174
0.68929
0.667209
0.706713
0.539288
0.688551
0.679742
0.717003
0.342053
0.352881
0.494996
0.692973
0.359078
0.726735
0.688443
0.673578
0.689432
0.645777
0.721736
0.705075
0.355776
0.687863
0.679524
0.639791
0.680577
0.694094
0.68514
0.686812
0.356224
0.355387
0.694465
0.564848
0.646123
0.688257
0.694927
0.694614
0.696624
0.695618
0.676631
0.681169
0.692741
0.362386
0.365967
0.353009
0.367414
0.558161
0.505624
0.637933
0.698689
0.705613
0.359238
0.693385
0.690241
0.340042
0.461821
0.557258
0.698535
0.360012
0.3393
0.364959
0.558195
0.685312
0.428486
0.351631
0.35387
0.380043
0.401584
0.358261
0.690071
0.695216
0.69965
0.347943
0.689633
0.671266
0.588244
0.400307
0.351631
0.685362
0.558303
0.357035
0.686737
0.357095
0.699218
0.359581
0.687532
0.346579
0.687661
0.692106
0.34346
0.556314
0.402382
0.692004
0.370711
0.671717
0.360949
0.545977
0.3548
0.670265
0.356163
0.675236
0.682547
0.588134
0.695498
0.40141
0.689251
0.68691
0.693011
0.671746
0.696385
0.35186
0.481861
0.34394
0.695832
0.415002
0.703727
0.551797
0.710865
0.691274
0.547649
0.704807
0.366949
0.348956
0.362444
0.543357
0.661459
0.694716
0.352972
0.382839
0.686304
0.466219
0.355444
0.665107
0.455324
0.357316
0.365561
0.689709
0.754946
0.672773
0.354423
0.688173
0.686308
0.332074
0.439868
0.688364
0.686737
0.668811
0.52376
0.475767
0.456607
0.344947
0.688744
0.677468
0.562159
0.71912
0.377017
0.642621
0.353619
0.648972
0.702647
0.352601
0.412449
0.679366
0.664343
0.700149
0.707112
0.700046
0.688926
0.691396
0.341355
0.369826
0.342425
0.352459
0.657319
0.592696
0.751067
0.352951
0.356459
0.510457
0.345817
0.694316
0.683635
0.356477
0.424417
0.689932
0.357813
0.71573
0.708709
0.686399
0.686972
0.655473
0.358167
0.345472
0.679722
0.352996
0.488198
0.441068
0.686696
0.686296
0.422257
0.354606
0.55826
0.355026
0.686766
0.696099
0.357007
0.354921
0.350888
0.69619
0.346787
0.558225
0.703055
0.673417
0.335002
0.536288
0.701844
0.690218
0.352736
0.690248
0.678958
0.351682
0.699681
0.688156
0.355266
0.358019
0.686689
0.355403
0.35221
0.689857
0.449673
0.694001
0.721579
0.6973
0.682172
0.704819
0.686947
0.684825
0.354149
0.474786
0.683829
0.69521
0.494335
0.692045
0.427127
0.693726
0.687852
0.572695
0.718819
0.4814
0.501156
0.693604
0.703697
0.679087
0.690879
0.691246
0.558066
0.690163
0.558253
0.688898
0.685945
0.6889
0.55823
0.684726
0.353536
0.68407
0.357894
0.687439
0.698331
0.708659
0.684873
0.716624
0.353232
0.346869
0.436406
0.352865
0.686054
0.348113
0.355515
0.704719
0.335379
0.707736
0.346115
0.689389
0.697315
0.357823
0.465574
0.373135
0.689865
0.350606
0.694369
0.699413
0.347899
0.685455
0.557918
0.381846
0.359999
0.336275
0.704648
0.358079
0.687831
0.645736
0.403893
0.690023
0.692509
0.698887
0.357071
0.653522
0.360775
0.690004
0.686419
0.68749
0.357921
0.694943
0.689609
0.682452
0.471608
0.691388
0.35786
0.354996
0.6864
0.501911
0.693414
0.46885
0.357751
0.488028
0.684013
0.358085
0.349316
0.3442
0.550852
0.555192
0.698475
0.355201
0.670654
0.69545
0.551309
0.508905
0.369235
0.559225
0.358204
0.353792
0.691658
0.355325
0.356635
0.689342
0.691391
0.339521
0.701864
0.341328
0.55738
0.360878
0.685588
0.672656
0.71592
0.68116
0.363804
0.354048
0.356232
0.6865
0.687022
0.575773
0.557781
0.460273
0.428461
0.692294
0.354336
0.69435
0.462754
0.67843
0.712616
0.343992
0.351286
0.355117
0.354468
0.354272
0.679202
0.686725
0.346973
0.697661
0.698946
0.404411
0.369604
0.691942
0.357407
0.696588
0.480998
0.715023
0.718591
0.69673
0.560172
0.360415
0.695405
0.687114
0.689739
0.357711
0.678167
0.582311
0.376273
0.689898
0.689347
0.689504
0.68827
0.691205
0.686679
0.6897
0.686908
0.691531
0.357908
0.699532
0.355084
0.519606
0.688463
0.357218
0.688473
0.679242
0.383513
0.682815
0.357826
0.351214
0.686443
0.676648
0.691423
0.355642
0.688065
0.681166
0.36067
0.347143
0.686321
0.686383
0.465568
0.348434
0.704363
0.691757
0.358227
0.708952
0.693492
0.747397
0.341823
0.357649
0.354964
0.72027
0.393097
0.690826
0.709266
0.692366
0.670947
0.696866
0.355847
0.688006
0.5936
0.693719
0.667156
0.358122
0.353722
0.375997
0.698836
0.699736
0.478595
0.719014
0.365835
0.691965
0.687763
0.36905
0.678426
0.691228
0.677812
0.34646
0.347837
0.36826
0.700131
0.693156
0.679723
0.523934
0.696772
0.356834
0.689618
0.556144
0.695236
0.345732
0.593922
0.385231
0.681293
0.377008
0.694057
0.686408
0.353258
0.699892
0.522429
0.558257
0.696158
0.558188
0.689251
0.478624
0.691989
0.693333
0.686818
0.694292
0.500749
0.556463
0.351887
0.693913
0.375232
0.354086
0.385413
0.353493
0.358042
0.34634
0.690698
0.459084
0.359384
0.707792
0.700461
0.687086
0.434316
0.713414
0.719418
0.686986
0.351874
0.667449
0.687511
0.37373
0.350056
0.354173
0.681959
0.517931
0.356848
0.668268
0.322816
0.553487
0.5147
0.347644
0.502603
0.721275
0.370836
0.686635
0.373382
0.622209
0.462702
0.688659
0.462959
0.700854
0.556952
0.675864
0.507785
0.354269
0.688865
0.691856
0.352058
0.352487
0.686651
0.353931
0.710653
0.348489
0.557404
0.374106
0.687125
0.36843
0.691236
0.353528
0.687483
0.697079
0.703725
0.558163
0.351931
0.359618
0.430155
0.686062
0.704417
0.683611
0.662342
0.379345
0.704363
0.37008
0.686781
0.673198
0.463981
0.396853
0.709148
0.6934
0.361339
0.643839
0.689157
0.707738
0.696683
0.37546
0.697487
0.35585
0.706899
0.392477
0.679749
0.685956
0.689356
0.691014
0.405502
0.690427
0.357601
0.355461
0.686738
0.557929
0.568505
0.694623
0.557887
0.357082
0.699987
0.688031
0.689853
0.353005
0.487249
0.713568
0.347489
0.696225
0.688714
0.689268
0.688654
0.405261
0.506404
0.7328
0.35543
0.687927
0.691547
0.526208
0.686395
0.413975
0.680382
0.699631
0.726032
0.686549
0.348126
0.358585
0.69486
0.689311
0.378755
0.408224
0.365313
0.357555
0.358412
0.348198
0.360319
0.358175
0.694945
0.374915
0.341444
0.703556
0.568101
0.55821
0.471757
0.35519
0.695682
0.516595
0.583986
0.69633
0.45897
0.740039
0.681915
0.590604
0.68993
0.34926
0.698439
0.685146
0.347729
0.354826
0.467599
0.678558
0.589174
0.69116
0.686428
0.695859
0.690836
0.397068
0.698393
0.685155
0.688009
0.355012
0.686914
0.669782
0.393216
0.488894
0.349937
0.362993
0.357837
0.666731
0.71602
0.694538
0.354097
0.469826
0.691891
0.343396
0.700201
0.693495
0.689522
0.724356
0.696255
0.371676
0.361988
0.357852
0.654445
0.390675
0.695574
0.359824
0.686973
0.686973
0.698091
0.365354
0.503825
0.476919
0.696819
0.345338
0.354071
0.687441
0.689761
0.680345
0.686447
0.686752
0.712042
0.358301
0.592558
0.705744
0.534084
0.696403
0.702063
0.711392
0.488396
0.478153
0.689818
0.513282
0.673572
0.356298
0.686148
0.688707
0.426588
0.393829
0.68985
0.53784
0.704702
0.70067
0.358109
0.351577
0.578447
0.503712
0.4433
0.688762
0.686149
0.388972
0.689827
0.576966
0.684984
0.358346
0.665795
0.358223
0.688415
0.702538
0.712001
0.694048
0.602646
0.423568
0.424849
0.697601
0.35714
0.588815
0.399996
0.697318
0.358991
0.709156
0.706314
0.570812
0.357927
0.558207
0.555786
0.353323
0.686276
0.334008
0.689887
0.357555
0.345285
0.363708
0.700162
0.689828
0.437979
0.433431