# vtk DataFile Version 1.0
unstructured grid
ascii
DATASET UNSTRUCTURED_GRID
points 13672 float
0.0796578 -0.059106 0
0.00128732 0.00159165 0
0.00227961 -0.00102548 0
0.0791586 -0.0598787 0
-0.0546216 0.01 0
0.000495206 0.025 0
0.0800549 -0.035 0
0.135172 -0.08 0
-0.0546216 -0.0451168 0
0.000495206 -0.0301168 0
0.0800549 -0.0901168 0
0.135172 -0.135117 0
-0.0546216 -0.0451168 -0.00551168
0.000495206 -0.0301168 -0.00551168
0.0800549 -0.0901168 -0.00551168
0.135172 -0.135117 -0.00551168
0.135172 -0.08 -0.00551168
0.0800549 -0.035 -0.00551168
0.000495206 0.025 -0.00551168
-0.0546216 0.01 -0.00551168
0.00128732 0.00159165 -0.00551168
0.00227961 -0.00102548 -0.00551168
0.0791586 -0.0598787 -0.00551168
0.0796578 -0.059106 -0.00551168
0.00165953 -0.000990923 0
0.00119576 -0.000874076 0
0.000866021 -0.000641801 0
0.000645147 -0.000349912 0
0.00052235 -1.7281e-05 0
0.00049972 0.000348016 0
0.000601632 0.000737716 0
0.000861774 0.0011403 0
0.00157235 0.00183217 0
0.00188647 0.00206725 0
0.00222612 0.00230203 0
0.00258713 0.00254351 0
0.00296826 0.00279524 0
0.00337118 0.00305664 0
0.00379785 0.00332658 0
0.00425045 0.00360349 0
0.00473139 0.00388521 0
0.0052432 0.00416895 0
0.0057881 0.00445204 0
0.00636753 0.00473281 0
0.00698281 0.00500961 0
0.00763526 0.00528058 0
0.00832616 0.00554366 0
0.00905691 0.00579603 0
0.00982918 0.00603333 0
0.0106445 0.00625033 0
0.0115038 0.00644128 0
0.0124073 0.00660297 0
0.0133543 0.00673414 0
0.0143444 0.00683382 0
0.0153769 0.00690031 0
0.0164512 0.00693173 0
0.0175666 0.00692547 0
0.0187219 0.00687822 0
0.0199156 0.00678477 0
0.0211454 0.00663864 0
0.0224084 0.00643275 0
0.0237018 0.00616676 0
0.0250249 0.00584739 0
0.026375 0.00547298 0
0.0277479 0.00503752 0
0.0291386 0.00453545 0
0.0305433 0.0039653 0
0.0319572 0.0033256 0
0.0333681 0.00260019 0
0.034775 0.00179799 0
0.0361793 0.000930615 0
0.0375798 3.12222e-06 0
0.0389689 -0.000988429 0
0.0403357 -0.00205109 0
0.041675 -0.00318283 0
0.0429849 -0.00437751 0
0.0442643 -0.00562904 0
0.0455126 -0.00693089 0
0.0467314 -0.00827518 0
0.0479204 -0.00965638 0
0.0490661 -0.0110799 0
0.0501515 -0.0125519 0
0.0511696 -0.0140695 0
0.0521492 -0.0156071 0
0.0531202 -0.0171411 0
0.0540851 -0.0186663 0
0.0550431 -0.0201798 0
0.0559923 -0.0216793 0
0.0569311 -0.0231626 0
0.0578582 -0.0246273 0
0.0587723 -0.0260715 0
0.0596721 -0.027493 0
0.0605563 -0.02889 0
0.0614241 -0.0302609 0
0.0622742 -0.0316042 0
0.063106 -0.0329183 0
0.0639186 -0.034202 0
0.0647113 -0.0354543 0
0.0654835 -0.0366743 0
0.0662345 -0.0378613 0
0.0669642 -0.0390145 0
0.0676726 -0.0401333 0
0.0683597 -0.0412172 0
0.0690246 -0.0422665 0
0.0696662 -0.0432819 0
0.0702841 -0.0442636 0
0.0708793 -0.0452111 0
0.0714538 -0.0461237 0
0.072009 -0.047001 0
0.0725452 -0.0478434 0
0.0730611 -0.0486524 0
0.073556 -0.0494294 0
0.0740291 -0.0501756 0
0.0744812 -0.0508916 0
0.0749138 -0.0515773 0
0.0753285 -0.0522331 0
0.0757266 -0.0528592 0
0.076109 -0.0534564 0
0.0764753 -0.0540264 0
0.0768243 -0.054571 0
0.0771553 -0.0550919 0
0.0774679 -0.0555901 0
0.0777617 -0.0560669 0
0.0780369 -0.056523 0
0.0782958 -0.0569578 0
0.0785421 -0.0573703 0
0.0787786 -0.0577603 0
0.0790073 -0.0581279 0
0.0792295 -0.058474 0
0.0794462 -0.0587995 0
0.0798803 -0.0594162 0
0.0800272 -0.0596588 0
0.0800357 -0.0598891 0
0.0799275 -0.0600784 0
0.0797205 -0.0601773 0
0.0794593 -0.0601051 0
0.0789155 -0.0596491 0
0.0786707 -0.0593963 0
0.0784111 -0.0591319 0
0.0781372 -0.0588542 0
0.0778566 -0.0585548 0
0.0775715 -0.0582308 0
0.0772803 -0.0578828 0
0.0769832 -0.0575099 0
0.0766822 -0.0571097 0
0.0763801 -0.0566796 0
0.0760759 -0.0562196 0
0.0757623 -0.0557337 0
0.0754359 -0.0552232 0
0.0750951 -0.0546879 0
0.0747379 -0.054128 0
0.0743626 -0.0535435 0
0.0739688 -0.0529338 0
0.0735559 -0.0522981 0
0.0731238 -0.0516357 0
0.0726718 -0.050946 0
0.0721991 -0.0502288 0
0.0717046 -0.049484 0
0.0711872 -0.0487117 0
0.0706461 -0.047912 0
0.0700804 -0.0470849 0
0.0694892 -0.0462308 0
0.0688718 -0.0453499 0
0.0682271 -0.0444431 0
0.0675544 -0.043511 0
0.0668527 -0.0425546 0
0.0661215 -0.0415748 0
0.06536 -0.040573 0
0.0645676 -0.0395504 0
0.0637439 -0.0385087 0
0.0628887 -0.0374493 0
0.062002 -0.0363741 0
0.0610838 -0.0352847 0
0.0601345 -0.0341831 0
0.0591547 -0.033071 0
0.0581456 -0.0319502 0
0.0571083 -0.0308224 0
0.0560444 -0.0296893 0
0.0549562 -0.028552 0
0.053845 -0.0274126 0
0.0527113 -0.0262746 0
0.051554 -0.0251427 0
0.0503724 -0.0240222 0
0.0491675 -0.0229164 0
0.047941 -0.0218282 0
0.0466955 -0.0207597 0
0.0454337 -0.0197126 0
0.0441592 -0.0186878 0
0.0428751 -0.0176863 0
0.0415841 -0.0167097 0
0.0402878 -0.0157609 0
0.0389879 -0.0148428 0
0.0376864 -0.0139575 0
0.0363853 -0.013107 0
0.0350871 -0.0122931 0
0.0337942 -0.0115164 0
0.0325095 -0.0107772 0
0.0312357 -0.0100756 0
0.0299758 -0.00941024 0
0.0287337 -0.00877784 0
0.0275126 -0.00817571 0
0.0263139 -0.00760375 0
0.0251376 -0.00706528 0
0.0239829 -0.0065649 0
0.0228537 -0.00609619 0
0.0217522 -0.00565563 0
0.0206795 -0.00524226 0
0.0196364 -0.00485507 0
0.0186233 -0.00449318 0
0.0176408 -0.00415577 0
0.016689 -0.00384204 0
0.0157682 -0.00355115 0
0.0148783 -0.00328218 0
0.0140192 -0.00303468 0
0.0131906 -0.00280795 0
0.0123925 -0.00260016 0
0.0116246 -0.00241012 0
0.0108864 -0.00223769 0
0.0101774 -0.00208212 0
0.00949701 -0.00194206 0
0.00884483 -0.0018163 0
0.0082202 -0.0017039 0
0.00762247 -0.00160391 0
0.00705097 -0.00151528 0
0.006505 -0.00143697 0
0.0059838 -0.00136806 0
0.00548662 -0.00130772 0
0.00501265 -0.00125519 0
0.00456114 -0.00120954 0
0.00413136 -0.00116914 0
0.00372257 -0.00113251 0
0.00333398 -0.00109853 0
0.00296466 -0.00106798 0
0.00261363 -0.0010431 0
-0.052721 -0.0445996 0
-0.0508204 -0.0440823 0
-0.0489199 -0.0435651 0
-0.0470193 -0.0430478 0
-0.0451187 -0.0425306 0
-0.0432181 -0.0420134 0
-0.0413175 -0.0414961 0
-0.039417 -0.0409789 0
-0.0375164 -0.0404616 0
-0.0356158 -0.0399444 0
-0.0337152 -0.0394271 0
-0.0318146 -0.0389099 0
-0.0299141 -0.0383927 0
-0.0280135 -0.0378754 0
-0.0261129 -0.0373582 0
-0.0242123 -0.0368409 0
-0.0223117 -0.0363237 0
-0.0204112 -0.0358065 0
-0.0185106 -0.0352892 0
-0.01661 -0.034772 0
-0.0147094 -0.0342547 0
-0.0128088 -0.0337375 0
-0.0109083 -0.0332202 0
-0.00900769 -0.032703 0
-0.00710711 -0.0321858 0
-0.00520653 -0.0316685 0
-0.00330595 -0.0311513 0
-0.00140537 -0.030634 0
0.00190689 -0.0299614 0
0.00332271 -0.0298498 0
0.00474133 -0.0297825 0
0.00616136 -0.0297597 0
0.0075814 -0.0297814 0
0.00900007 -0.0298477 0
0.010416 -0.0299583 0
0.0118278 -0.0301127 0
0.0132342 -0.0303103 0
0.0146339 -0.0305504 0
0.0160259 -0.0308322 0
0.0174091 -0.0311546 0
0.0187824 -0.0315166 0
0.020145 -0.031917 0
0.0214961 -0.0323546 0
0.0228351 -0.032828 0
0.0241613 -0.0333361 0
0.0254744 -0.0338774 0
0.0267738 -0.0344507 0
0.0280592 -0.0350545 0
0.0293306 -0.0356877 0
0.0305875 -0.0363488 0
0.0318301 -0.0370367 0
0.0330581 -0.0377501 0
0.0342717 -0.0384879 0
0.0354708 -0.0392489 0
0.0366556 -0.0400321 0
0.0378262 -0.0408363 0
0.0389828 -0.0416607 0
0.0401254 -0.0425042 0
0.0412543 -0.0433659 0
0.0423698 -0.0442451 0
0.043472 -0.0451408 0
0.0445612 -0.0460523 0
0.0456375 -0.0469789 0
0.0467013 -0.0479199 0
0.0477529 -0.0488746 0
0.0487923 -0.0498424 0
0.04982 -0.0508227 0
0.0508362 -0.051815 0
0.051841 -0.0528187 0
0.0528348 -0.0538333 0
0.0538178 -0.0548584 0
0.0547903 -0.0558935 0
0.0557524 -0.0569382 0
0.0567045 -0.0579922 0
0.0576467 -0.0590549 0
0.0585792 -0.0601261 0
0.0595024 -0.0612055 0
0.0604163 -0.0622926 0
0.0613212 -0.0633873 0
0.0622174 -0.0644891 0
0.0631049 -0.0655979 0
0.0639841 -0.0667134 0
0.064855 -0.0678353 0
0.0657179 -0.0689633 0
0.0665729 -0.0700974 0
0.0674202 -0.0712372 0
0.06826 -0.0723826 0
0.0690925 -0.0735333 0
0.0699178 -0.0746892 0
0.070736 -0.0758501 0
0.0715473 -0.0770159 0
0.0723518 -0.0781863 0
0.0731498 -0.0793612 0
0.0739412 -0.0805405 0
0.0747264 -0.081724 0
0.0755053 -0.0829116 0
0.0762781 -0.0841033 0
0.0770449 -0.0852987 0
0.0778059 -0.0864979 0
0.0785611 -0.0877007 0
0.0793108 -0.088907 0
0.0814681 -0.0912706 0
0.0828814 -0.0924245 0
0.0842946 -0.0935783 0
0.0857079 -0.0947322 0
0.0871211 -0.095886 0
0.0885344 -0.0970399 0
0.0899476 -0.0981937 0
0.0913609 -0.0993476 0
0.0927741 -0.100501 0
0.0941874 -0.101655 0
0.0956006 -0.102809 0
0.0970139 -0.103963 0
0.0984272 -0.105117 0
0.0998404 -0.106271 0
0.101254 -0.107424 0
0.102667 -0.108578 0
0.10408 -0.109732 0
0.105493 -0.110886 0
0.106907 -0.11204 0
0.10832 -0.113194 0
0.109733 -0.114348 0
0.111146 -0.115501 0
0.11256 -0.116655 0
0.113973 -0.117809 0
0.115386 -0.118963 0
0.116799 -0.120117 0
0.118213 -0.121271 0
0.119626 -0.122424 0
0.121039 -0.123578 0
0.122452 -0.124732 0
0.123866 -0.125886 0
0.125279 -0.12704 0
0.126692 -0.128194 0
0.128105 -0.129348 0
0.129519 -0.130501 0
0.130932 -0.131655 0
0.132345 -0.132809 0
0.133758 -0.133963 0
0.135172 -0.133216 0
0.135172 -0.131316 0
0.135172 -0.129415 0
0.135172 -0.127514 0
0.135172 -0.125614 0
0.135172 -0.123713 0
0.135172 -0.121813 0
0.135172 -0.119912 0
0.135172 -0.118012 0
0.135172 -0.116111 0
0.135172 -0.11421 0
0.135172 -0.11231 0
0.135172 -0.110409 0
0.135172 -0.108509 0
0.135172 -0.106608 0
0.135172 -0.104708 0
0.135172 -0.102807 0
0.135172 -0.100906 0
0.135172 -0.0990058 0
0.135172 -0.0971052 0
0.135172 -0.0952046 0
0.135172 -0.0933041 0
0.135172 -0.0914035 0
0.135172 -0.0895029 0
0.135172 -0.0876023 0
0.135172 -0.0857017 0
0.135172 -0.0838012 0
0.135172 -0.0819006 0
0.133758 -0.0788462 0
0.132345 -0.0776923 0
0.130932 -0.0765385 0
0.129519 -0.0753846 0
0.128105 -0.0742308 0
0.126692 -0.0730769 0
0.125279 -0.0719231 0
0.123866 -0.0707692 0
0.122452 -0.0696154 0
0.121039 -0.0684615 0
0.119626 -0.0673077 0
0.118213 -0.0661538 0
0.116799 -0.065 0
0.115386 -0.0638462 0
0.113973 -0.0626923 0
0.11256 -0.0615385 0
0.111146 -0.0603846 0
0.109733 -0.0592308 0
0.10832 -0.0580769 0
0.106907 -0.0569231 0
0.105493 -0.0557692 0
0.10408 -0.0546154 0
0.102667 -0.0534615 0
0.101254 -0.0523077 0
0.0998404 -0.0511538 0
0.0984272 -0.05 0
0.0970139 -0.0488462 0
0.0956006 -0.0476923 0
[...]
CELL_DATA 13116
SCALARS rho float
LOOKUP_TABLE default
0.597664
0.689243
0.396918
0.689342
0.692518
0.682698
0.355555
0.690619
0.593687
0.693435
0.357325
0.405036
0.692409
0.376353
0.39859
0.684001
0.597586
0.700258
0.691287
0.357598
0.597699
0.431897
0.391393
0.697915
0.5977
0.687348
0.693551
0.405161
0.597707
0.650968
0.661627
0.40648
0.596931
0.559358
0.356059
0.5977
0.699583
0.690308
0.68028
0.688725
0.679935
0.690155
0.593668
0.385154
0.689313
0.691498
0.682713
0.685739
0.422498
0.583652
0.689453
0.582652
0.358841
0.594089
0.597383
0.597702
0.383658
0.697245
0.585737
0.409308
0.377581
0.691437
0.683869
0.680302
0.674078
0.363744
0.687175
0.696942
0.687179
0.679602
0.398447
0.597539
0.43213
0.37565
0.558524
0.378274
0.685019
0.690498
0.356266
0.702294
0.697737
0.68644
0.697891
0.693488
0.687328
0.513781
0.353709
0.686487
0.687166
0.358249
0.398201
0.690081
0.697538
0.688371
0.682421
0.5977
0.5977
0.609968
0.591205
0.597705
0.73801
0.677475
0.687777
0.547343
0.681641
0.409496
0.485227
0.595859
0.398051
0.597699
0.597711
0.68451
0.597699
0.700014
0.701596
0.6877
0.359309
0.50276
0.689267
0.688206
0.697165
0.436399
0.687278
0.396361
0.688701
0.536042
0.354638
0.569655
0.392264
0.581916
0.689397
0.703329
0.548207
0.426226
0.537511
0.673434
0.558128
0.688232
0.739791
0.688228
0.681383
0.68323
0.571703
0.681378
0.683406
0.386606
0.356241
0.685904
0.692829
0.689378
0.576705
0.694489
0.685174
0.360437
0.694212
0.687476
0.395898
0.723754
0.612198
0.684441
0.69801
0.357073
0.69628
0.395107
0.433767
0.691275
0.688498
0.700524
0.355822
0.52612
0.510027
0.55804
0.3956
0.56731
0.687654
0.39223
0.410591
0.432975
0.68438
0.680333
0.358156
0.523799
0.59771
0.694708
0.680382
0.587464
0.358345
0.688625
0.681175
0.551335
0.687325
0.685568
0.680097
0.401783
0.684228
0.679996
0.694951
0.688781
0.687283
0.506254
0.550888
0.597699
0.567079
0.37934
0.691962
0.694872
0.585053
0.597702
0.400028
0.35823
0.375341
0.685982
0.39876
0.358007
0.358434
0.362001
0.495751
0.68026
0.6888
0.5082
0.380984
0.687166
0.597684
0.358181
0.575881
0.692848
0.683237
0.406227
0.687535
0.495743
0.689908
0.404654
0.680595
0.594238
0.566025
0.688109
0.680176
0.425806
0.534109
0.677232
0.552642
0.680239
0.558123
0.680422
0.69037
0.414293
0.689108
0.693069
0.591081
0.357199
0.425636
0.696118
0.689057
0.680099
0.687677
0.597673
0.70627
0.357432
0.436723
0.514021
0.398085
0.679913
0.694925
0.684686
0.354396
0.688205
0.357361
0.510392
0.68179
0.357989
0.687
0.690284
0.555318
0.697179
0.424051
0.557068
0.696767
0.606273
0.688195
0.356561
0.353539
0.401524
0.670122
0.432925
0.438288
0.47509
0.463573
0.689463
0.363395
0.687742
0.691328
0.355314
0.358279
0.355888
0.533513
0.406377
0.683796
0.674931
0.682982
0.358095
0.685641
0.592463
0.435871
0.408925
0.679906
0.688856
0.688797
0.358885
0.679909
0.547
0.702918
0.689872
0.689157
0.690149
0.40191
0.687473
0.381604
0.687625
0.692933
0.594898
0.358476
0.473031
0.692672
0.355551
0.684578
0.691247
0.483183
0.710667
0.69781
0.354057
0.688299
0.697487
0.378095
0.689365
0.511225
0.585881
0.691259
0.514327
0.721299
0.354378
0.699724
0.476332
0.68036
0.677589
0.695412
0.404923
0.487277
0.687402
0.359516
0.691058
0.681482
0.520681
0.558311
0.359734
0.418127
0.688349
0.579283
0.692549
0.353538
0.39624
0.689097
0.691497
0.356307
0.690099
0.365412
0.413532
0.688034
0.691069
0.597724
0.358312
0.688498
0.667283
0.683529
0.688397
0.694867
0.578829
0.441251
0.392447
0.358174
0.681981
0.358202
0.597709
0.489116
0.400927
0.483941
0.597716
0.294237
0.358724
0.687405
0.395471
0.696179
0.597705
0.689527
0.674438
0.689557
0.418943
0.353919
0.514402
0.460044
0.688617
0.597699
0.6837
0.597705
0.684357
0.596195
0.685823
0.687101
0.63739
0.69378
0.70319
0.68009
0.517787
0.578052
0.59769
0.425184
0.674394
0.597701
0.35777
0.687452
0.554281
0.402747
0.358111
0.358314
0.35829
0.5977
0.372335
0.401741
0.686777
0.363279
0.595221
0.358495
0.684454
0.7071
0.410971
0.426403
0.688089
0.530913
0.358355
0.357548
0.358221
0.398734
0.353967
0.358277
0.442744
0.512882
0.358257
0.677145
0.4317
0.687336
0.480684
0.391513
0.542055
0.390229
0.358307
0.391276
0.688499
0.518448
0.5977
0.59771
0.361161
0.597704
0.68723
0.512135
0.710913
0.589855
0.610597
0.35441
0.579038
0.50363
0.696066
0.636766
0.401717
0.363116
0.681025
0.462138
0.5134
0.677799
0.484506
0.728238
0.683098
0.358287
0.407177
0.38645
0.565682
0.405913
0.370042
0.395592
0.379689
0.690625
0.690056
0.536796
0.597703
0.540105
0.684004
0.487558
0.369463
0.59457
0.402067
0.70011
0.449403
0.492962
0.545715
0.689208
0.688521
0.58344
0.479287
0.36076
0.581377
0.690478
0.680324
0.579778
0.681332
0.679396
0.358253
0.706845
0.592844
0.672258
0.47162
0.407289
0.700052
0.695007
0.665044
0.693116
0.686704
0.687909
0.698682
0.630767
0.687875
0.358045
0.688681
0.478927
0.405521
0.358183
0.68925
0.695054
0.468824
0.687147
0.597699
0.358487
0.680296
0.688552
0.69436
0.404552
0.366819
0.690798
0.358214
0.358338
0.398919
0.358254
0.69937
0.374513
0.688458
0.430155
0.689602
0.68967
0.686788
0.69183
0.358275
0.358219
0.697098
0.689954
0.692786
0.69073
0.693405
0.535031
0.354005
0.402853
0.684086
0.590032
0.358414
0.530297
0.400627
0.690011
0.688239
0.470507
0.435568
0.686775
0.517038
0.687606
0.597699
0.390649
0.494995
0.688916
0.553751
0.395683
0.688278
0.688476
0.696286
0.370773
0.557953
0.379825
0.564284
0.669506
0.358312
0.493693
0.439547
0.575007
0.398318
0.355048
0.505361
0.68039
0.692215
0.355421
0.433248
0.358272
0.680218
0.434141
0.680279
0.384671
0.597687
0.693002
0.485229
0.393972
0.392237
0.536183
0.403066
0.688021
0.361637
0.377748
0.68019
0.373865
0.686211
0.684265
0.5925
0.35832
0.699338
0.695778
0.694908
0.68539
0.690489
0.687879
0.398376
0.680121
0.510028
0.695832
0.356293
0.690188
0.585017
0.356176
0.668582
0.69357
0.360437
0.692322
0.399581
0.395755
0.686476
0.688355
0.399213
0.391018
0.355953
0.399392
0.690172
0.697772
0.36814
0.358274
0.691122
0.688159
0.597706
0.695844
0.688133
0.357306
0.695391
0.513402
0.689494
0.508787
0.597699
0.532612
0.687509
0.693471
0.592807
0.48376
0.403407
0.688644
0.597707
0.596779
0.696089
0.393353
0.696285
0.69447
0.497022
0.579392
0.695282
0.485388
0.678096
0.679119
0.470853
0.688664
0.680805
0.408192
0.694177
0.401337
0.686714
0.381657
0.685972
0.683566
0.404549
0.680289
0.696302
0.691079
0.597699
0.705578
0.593137
0.460441
0.542644
0.388362
0.374996
0.558242
0.577864
0.687724
0.692743
0.358308
0.450566
0.704699
0.693176
0.688204
0.690421
0.357929
0.704033
0.692796
0.35785
0.393501
0.689351
0.695742
0.686615
0.404848
0.594769
0.41228
0.695116
0.684523
0.680417
0.691201
0.358267
0.697827
0.687538
0.697744
0.688296
0.680069
0.509229
0.694336
0.358227
0.680181
0.69313
0.526149
0.684339
0.680416
0.68973
0.559457
0.52314
0.594421
0.591932
0.35823
0.358306
0.358033
0.358382
0.690875
0.699378
0.680334
0.466213
0.35802
0.687062
0.719
0.37573
0.454243
0.530747
0.700605
0.688762
0.688214
0.699824
0.358274
0.358277
0.558331
0.397136
0.358026
0.364812
0.683656
0.411178
0.358481
0.597705
0.696609
0.684111
0.679998
0.688586
0.359856
0.383627
0.358114
0.597714
0.518753
0.403532
0.693557
0.700868
0.686008
0.685468
0.405969
0.358232
0.693157
0.358333
0.680278
0.683525
0.643013
0.399154
0.358235
0.686302
0.665106
0.628652
0.375902
0.687516
0.680025
0.597707
0.689354
0.69017
0.558259
0.680911
0.358143
0.688449
0.676249
0.679671
0.69344
0.558253
0.684708
0.558793
0.68806
0.376119
0.39392
0.358231
0.669119
0.587489
0.358318
0.705092
0.691559
0.40551
0.692682
0.413765
0.689409
0.597725
0.425736
0.692583
0.698663
0.358405
0.572257
0.668411
0.384887
0.68846
0.368425
0.408185
0.5973
0.597699
0.541885
0.688646
0.358139
0.69622
0.404409
0.408584
0.686065
0.358375
0.5977
0.401337
0.691789
0.597699
0.557888
0.68838
0.392598
0.380859
0.678488
0.596503
0.688018
0.564663
0.597699
0.683099
0.698026
0.596996
0.5977
0.684285
0.695019
0.687293
0.479438
0.358364
0.569969
0.684267
0.695114
0.500818
0.688715
0.619001
0.512585
0.400065
0.613256
0.70267
0.558
0.569008
0.677425
0.696391
0.680116
0.701785
0.402827
0.611769
0.529586
0.689084
0.695315
0.463256
0.691502
0.692028
0.400599
0.418287
0.355236
0.558242
0.357043
0.597691
0.69404
0.593609
0.449639
0.688492
0.37996
0.59524
0.680324
0.680342
0.691282
0.680142
0.5977
0.699953
0.5949
0.694949
0.381478
0.680062
0.686514
0.592888
0.559436
0.697466
0.402021
0.394299
0.386064
0.689205
0.358323
0.557089
0.358113
0.690576
0.364847
0.532944
0.396118
0.696143
0.690261
0.597526
0.446079
0.5977
0.680296
0.358296
0.597707
0.690137
0.405289
0.597701
0.62714
0.692844
0.68015
0.402439
0.596443
0.690294
0.693153
0.680634
0.358229
0.51925
0.68788
0.558277
0.556862
0.558231
0.597703
0.702392
0.597706
0.688788
0.358257
0.380863
0.558233
0.692528
0.68031
0.366612
0.679835
0.5977
0.588619
0.387944
0.504588
0.689977
0.687785
0.590562
0.451801
0.684543
0.556641
0.355798
0.597699
0.699528
0.355846
0.3899
0.383677
0.681425
0.439829
0.35807
0.688398
0.56716
0.695228
0.693847
0.355691
0.353929
0.690728
0.395726
0.372916
0.662005
0.417947
0.49055
0.597699
0.6906
0.700407
0.358173
0.420325
0.357294
0.684214
0.411062
0.698917
0.373294
0.704497
0.689351
0.688407
0.682324
0.698119
0.684463
0.688674
0.691915
0.688207
0.371935
0.358208
0.693197
0.680203
0.543278
0.68218
0.594852
0.680329
0.678993
0.409436
0.688034
0.690678
0.693178
0.35713
0.698757
0.413964
0.694861
0.536043
0.701475
0.685479
0.427257
0.689034
0.358231
0.556957
0.684161
0.367255
0.71864
0.558247
0.690481
0.358778
0.686943
0.358446
0.398838
0.400898
0.358413
0.67761
0.398222
0.683103
0.68026
0.455325
0.401805
0.533325
0.594176
0.590816
0.680941
0.358299
0.357443
0.356353
0.394637
0.442583
0.615321
0.68485
0.406125
0.68033
0.693622
0.381379
0.691224
0.721879
0.680269
0.357807
0.555959
0.704437
0.693826
0.688925
0.405818
0.6984
0.693222
0.699561
0.589442
0.680218
0.440425
0.401367
0.692368
0.566541
0.35828
0.686102
0.398675
0.586856
0.688935
0.686659
0.686552
0.400658
0.6817
0.511417
0.357242
0.706704
0.691272
0.694128
0.689083
0.697192
0.398782
0.692163
0.406997
0.542148
0.691256
0.582348
0.689377
0.357274
0.43157
0.692878
0.446521
0.690761
0.5977
0.518968
0.457416
0.688256
0.401937
0.685178
0.690852
0.690225
0.401568
0.396925
0.564131
0.594002
0.592174
0.553954
0.680903
0.681173
0.687711
0.558208
0.7028
0.355593
0.4543
0.690511
0.680291
0.680294
0.524109
0.376377
0.705867
0.392122
0.688266
0.597699
0.436502
0.688339
0.357632
0.689407
0.399336
0.693285
0.420949
0.698095
0.680312
0.398093
0.688643
0.592366
0.381321
0.68042
0.68967
0.595866
0.38785
0.49668
0.554586
0.69548
0.678194
0.447107
0.593379
0.69465
0.680154
0.451043
0.666229
0.690093
0.515554
0.680418
0.687355
0.461416
0.687239
0.622739
0.394546
0.597702
0.358207
0.686606
0.35862
0.409577
0.695165
0.358255
0.3583
0.389445
0.687252
0.684898
0.524289
0.684468
0.493694
0.693649
0.358492
0.687674
0.492998
0.685108
0.689321
0.685949
0.680383
0.573893
0.680337
0.680245
0.402147
0.5977
0.689055
0.597697
0.704266
0.536532
0.537302
0.692247
0.358122
0.595233
0.415511
0.685216
0.370248
0.401613
0.698735
0.688432
0.35828
0.688764
0.701405
0.558251
0.690207
0.571064
0.358296
0.692289
0.358072
0.397212
0.687673
0.698616
0.690342
0.687235
0.403671
0.359304
0.357028
0.68977
0.680301
0.49438
0.690923
0.363435
0.35937
0.381156
0.687312
0.507319
0.692116
0.688192
0.5977
0.688352
0.689823
0.5977
0.683833
0.511352
0.377255
0.358257
0.562287
0.551958
0.369069
0.636902
0.68043
0.684469
0.401758
0.563341
0.681448
0.429897
0.680498
0.676478
0.358021
0.680335
0.691513
0.358325
0.700658
0.369841
0.687429
0.695644
0.698004
0.394514
0.523501
0.717555
0.465726
0.513411
0.688239
0.470677
0.680358
0.68723
0.68657
0.702129
0.445671
0.663224
0.706768
0.692
0.487203
0.689559
0.414231
0.383455
0.686955
0.688622
0.680371
0.389778
0.685609
0.5977
0.557049
0.359388
0.364915
0.358325
0.689016
0.35609
0.373921
0.405287
0.675688
0.372606
0.462224
0.513713
0.698302
0.358252
0.68036
0.680329
0.688717
0.359311
0.686776
0.671703
0.680352
0.506273
0.590722
0.356579
0.358158
0.686933
0.358292
0.688512
0.697237
0.558142
0.358099
0.473578
0.359261
0.580553
0.558046
0.392968
0.691424
0.687131
0.701619
0.358426
0.404314
0.478412
0.679313
0.358397
0.558213
0.597705
0.680333
0.688025
0.356799
0.693175
0.399106
0.674546
0.597701
0.693218
0.672411
0.597697
0.660816
0.680614
0.690555
0.358252
0.479334
0.366806
0.701799
0.591038
0.587138
0.358101
0.508092
0.695615
0.686819
0.679277
0.358278
0.688788
0.579496
0.582864
0.67886
0.40118
0.358239
0.462824
0.688564
0.68034
0.594263
0.683499
0.478157
0.690645
0.591944
0.680323
0.680383
0.690178
0.691081
0.67995
0.697535
0.694346
0.402661
0.687905
0.689285
0.680222
0.688484
0.688758
0.67449
0.358405
0.413426
0.679757
0.358277
0.448731
0.688667
0.388024
0.5977
0.686952
0.687464
0.693717
0.403094
0.688753
0.401432
0.375284
0.680586
0.702378
0.685478
0.360374
0.690056
0.687698
0.679316
0.688722
0.424093
0.680122
0.692919
0.692395
0.508869
0.698758
0.357715
0.687519
0.372509
0.358344
0.598058
0.527055
0.692606
0.696592
0.68014
0.405717
0.680182
0.527501
0.391485
0.68717
0.532811
0.358227
0.681351
0.423196
0.547689
0.693918
0.682218
0.686411
0.534801
0.597594
0.679247
0.680195
0.671593
0.693977
0.567681
0.688258
0.683059
0.668499
0.403863
0.356499
0.524835
0.689093
0.401837
0.679409
0.689
0.5977
0.680686
0.597699
0.715071
0.700879
0.357681
0.688582
0.681305
0.597698
0.68156
0.692408
0.688183
0.68018
0.358397
0.383082
0.696951
0.593088
0.5977
0.688164
0.696696
0.68491
0.694982
0.695538
0.597415
0.68103
0.693312
0.382701
0.413571
0.372929
0.427092
0.557083
0.541531
0.597707
0.689059
0.696716
0.398924
0.694508
0.688527
0.361042
0.49575
0.554508
0.688447
0.403218
0.405964
0.399194
0.558216
0.687672
0.511971
0.355663
0.358054
0.417761
0.478665
0.358295
0.690552
0.687197
0.706369
0.358158
0.68812
0.590643
0.597702
0.465574
0.357653
0.686795
0.558578
0.358513
0.683189
0.358331
0.698464
0.402232
0.688654
0.357726
0.686048
0.689651
0.359105
0.583983
0.450542
0.691754
0.415919
0.596112
0.397055
0.57777
0.356666
0.591167
0.358295
0.680132
0.680082
0.597702
0.697041
0.468999
0.687511
0.680194
0.690083
0.595344
0.695409
0.357922
0.564843
0.367259
0.696807
0.452887
0.692054
0.580297
0.699415
0.692643
0.597709
0.693996
0.392815
0.372988
0.382275
0.574033
0.627649
0.697882
0.35817
0.433856
0.686264
0.497932
0.402402
0.666061
0.495265
0.358497
0.412295
0.689786
0.597706
0.618807
0.38597
0.685779
0.688399
0.402622
0.4743
0.687623
0.688319
0.674646
0.551328
0.506368
0.487364
0.359371
0.690161
0.678872
0.592064
0.707147
0.404395
0.597707
0.357405
0.676189
0.691221
0.358279
0.443959
0.680041
0.660617
0.691524
0.694159
0.694908
0.689021
0.691462
0.364907
0.429027
0.368999
0.356711
0.59754
0.64356
0.597692
0.357557
0.358248
0.564835
0.395971
0.684621
0.681961
0.358419
0.469305
0.686988
0.395175
0.678548
0.695868
0.684287
0.680002
0.5977
0.358348
0.355891
0.680406
0.358293
0.548751
0.520603
0.680347
0.68822
0.45425
0.358046
0.558274
0.35829
0.68782
0.696904
0.358224
0.402571
0.362412
0.686534
0.36086
0.558216
0.693154
0.597703
0.406647
0.56452
0.690609
0.688272
0.355615
0.689674
0.680272
0.395294
0.689169
0.687734
0.357275
0.358236
0.686081
0.358262
0.356606
0.689893
0.482548
0.694604
0.716265
0.698212
0.682084
0.692512
0.687083
0.680391
0.356704
0.503973
0.681435
0.699806
0.522332
0.692012
0.477642
0.687953
0.686486
0.597675
0.672429
0.56305
0.531812
0.695116
0.692116
0.682384
0.689559
0.686007
0.557408
0.689745
0.558277
0.690106
0.687697
0.690031
0.558332
0.680392
0.393751
0.686794
0.400453
0.688206
0.687989
0.696658
0.68418
0.703487
0.397022
0.359577
0.469081
0.355977
0.684061
0.357351
0.357743
0.695928
0.405327
0.697676
0.35878
0.688889
0.696758
0.358218
0.497045
0.439812
0.688989
0.382589
0.697604
0.689435
0.36132
0.686192
0.585711
0.456216
0.40366
0.400148
0.708791
0.358258
0.68872
0.5977
0.456209
0.68928
0.680095
0.69506
0.358339
0.597703
0.399016
0.688969
0.67989
0.687795
0.358396
0.699238
0.688141
0.683487
0.515028
0.688996
0.35833
0.358333
0.688265
0.538555
0.694064
0.553465
0.358444
0.516129
0.684293
0.399132
0.389355
0.384455
0.596995
0.5776
0.689358
0.37744
0.596301
0.686145
0.579271
0.576382
0.431559
0.586782
0.35833
0.357852
0.693919
0.358409
0.358248
0.689356
0.690137
0.3636
0.70092
0.366331
0.555341
0.406498
0.687887
0.679868
0.702829
0.680306
0.411209
0.357844
0.401938
0.680532
0.687085
0.597278
0.586509
0.49216
0.463032
0.680489
0.35699
0.692796
0.492984
0.680365
0.699163
0.356476
0.388603
0.358207
0.3581
0.393571
0.679898
0.684065
0.358093
0.687277
0.643823
0.461373
0.39282
0.690085
0.358301
0.695761
0.509664
0.70215
0.678552
0.686693
0.596782
0.386857
0.695498
0.688346
0.689357
0.358283
0.678647
0.597707
0.445996
0.689028
0.684826
0.689952
0.685411
0.691546
0.68815
0.690046
0.681559
0.689851
0.358149
0.696187
0.358206
0.570135
0.688231
0.401866
0.686423
0.679496
0.429462
0.683203
0.358266
0.397941
0.688247
0.678857
0.690397
0.358166
0.685076
0.5977
0.406128
0.358274
0.688748
0.68837
0.495815
0.395942
0.69472
0.690074
0.358384
0.668514
0.690565
0.597701
0.357139
0.358332
0.403224
0.677107
0.422751
0.690857
0.702156
0.680443
0.626887
0.692965
0.358224
0.686667
0.597699
0.689813
0.671496
0.402245
0.356291
0.406739
0.69791
0.689455
0.507806
0.677222
0.422601
0.685999
0.688133
0.395851
0.680253
0.691424
0.595227
0.358273
0.353823
0.428876
0.690477
0.693889
0.5977
0.551529
0.688278
0.358506
0.595903
0.557528
0.699638
0.358348
0.5977
0.433401
0.681384
0.412295
0.696544
0.688318
0.383821
0.689449
0.590368
0.558333
0.692896
0.558195
0.689062
0.536244
0.680545
0.68094
0.68803
0.697169
0.528511
0.555649
0.368649
0.683795
0.404173
0.358268
0.415353
0.391866
0.358303
0.358267
0.69113
0.489761
0.377461
0.686913
0.689755
0.684287
0.518241
0.70276
0.707941
0.680117
0.402468
0.673463
0.687276
0.441425
0.396747
0.357855
0.592881
0.545563
0.358179
0.676894
0.406366
0.580176
0.542196
0.356214
0.530617
0.666871
0.434644
0.688055
0.398759
0.597698
0.493694
0.690178
0.500739
0.695851
0.551312
0.679762
0.579319
0.358411
0.690196
0.690411
0.401589
0.398443
0.681926
0.358065
0.699684
0.358126
0.585125
0.404877
0.68704
0.429501
0.690821
0.358221
0.688185
0.687802
0.691875
0.557547
0.367934
0.396828
0.513927
0.688126
0.698528
0.683928
0.649273
0.430374
0.693873
0.433398
0.686518
0.676383
0.540836
0.456508
0.695952
0.695587
0.396643
0.676876
0.690637
0.694659
0.698152
0.401468
0.594662
0.358255
0.69408
0.424166
0.680383
0.68571
0.690816
0.6908
0.459725
0.689472
0.358292
0.357543
0.687837
0.556167
0.595119
0.697132
0.555417
0.358254
0.700469
0.68968
0.690393
0.399283
0.522374
0.705167
0.356867
0.688162
0.689004
0.686728
0.689917
0.445998
0.556194
0.594282
0.387182
0.686486
0.690042
0.565862
0.687672
0.449886
0.680633
0.699654
0.723677
0.688328
0.353754
0.402075
0.697576
0.688062
0.422616
0.476046
0.42226
0.39264
0.376491
0.376378
0.407061
0.358269
0.69828
0.403066
0.357763
0.694295
0.595927
0.5582
0.5055
0.358051
0.686395
0.556005
0.597717
0.694378
0.497129
0.601906
0.680296
0.597699
0.689236
0.38112
0.688228
0.680248
0.366981
0.358264
0.540995
0.679148
0.597699
0.69191
0.685852
0.700585
0.690801
0.477575
0.688355
0.680274
0.689394
0.358452
0.687186
0.675433
0.472232
0.520252
0.361253
0.397002
0.376869
0.597699
0.697319
0.694426
0.358023
0.501192
0.689847
0.402202
0.689967
0.682261
0.686764
0.724766
0.687455
0.437659
0.39794
0.400686
0.5977
0.420977
0.685247
0.402062
0.687245
0.681169
0.687609
0.422661
0.550102
0.530485
0.689516
0.390699
0.357676
0.688665
0.688842
0.685037
0.683946
0.688681
0.699869
0.358366
0.5977
0.692908
0.56203
0.695034
0.692938
0.696969
0.517223
0.507138
0.690321
0.540649
0.663261
0.358405
0.682677
0.687291
0.510027
0.423601
0.688004
0.567599
0.692292
0.690228
0.358253
0.358188
0.630789
0.583321
0.527528
0.687619
0.688813
0.436324
0.688061
0.633287
0.684215
0.358286
0.597699
0.358364
0.687715
0.690882
0.698972
0.69327
0.654261
0.464477
0.491219
0.702148
0.358226
0.597701
0.450209
0.686931
0.384046
0.679669
0.693346
0.621286
0.358372
0.55823
0.557714
0.357159
0.682494
0.405636
0.689615
0.358453
0.356437
0.392933
0.704854
0.68859
0.472403
0.46745
0.686253
0.69146
0.534797
0.705112
0.358236
0.597629