# vtk DataFile Version 1.0
unstructured grid
ascii
DATASET UNSTRUCTURED_GRID
points 13672 float
0.0796578 -0.059106 0
0.00128732 0.00159165 0
0.00227961 -0.00102548 0
0.0791586 -0.0598787 0
-0.0546216 0.01 0
0.000495206 0.025 0
0.0800549 -0.035 0
0.135172 -0.08 0
-0.0546216 -0.0451168 0
0.000495206 -0.0301168 0
0.0800549 -0.0901168 0
0.135172 -0.135117 0
-0.0546216 -0.0451168 -0.00551168
0.000495206 -0.0301168 -0.00551168
0.0800549 -0.0901168 -0.00551168
0.135172 -0.135117 -0.00551168
0.135172 -0.08 -0.00551168
0.0800549 -0.035 -0.00551168
0.000495206 0.025 -0.00551168
-0.0546216 0.01 -0.00551168
0.00128732 0.00159165 -0.00551168
0.00227961 -0.00102548 -0.00551168
0.0791586 -0.0598787 -0.00551168
0.0796578 -0.059106 -0.00551168
0.00165953 -0.000990923 0
0.00119576 -0.000874076 0
0.000866021 -0.000641801 0
0.000645147 -0.000349912 0
0.00052235 -1.7281e-05 0
0.00049972 0.000348016 0
0.000601632 0.000737716 0
0.000861774 0.0011403 0
0.00157235 0.00183217 0
0.00188647 0.00206725 0
0.00222612 0.00230203 0
0.00258713 0.00254351 0
0.00296826 0.00279524 0
0.00337118 0.00305664 0
0.00379785 0.00332658 0
0.00425045 0.00360349 0
0.00473139 0.00388521 0
0.0052432 0.00416895 0
0.0057881 0.00445204 0
0.00636753 0.00473281 0
0.00698281 0.00500961 0
0.00763526 0.00528058 0
0.00832616 0.00554366 0
0.00905691 0.00579603 0
0.00982918 0.00603333 0
0.0106445 0.00625033 0
0.0115038 0.00644128 0
0.0124073 0.00660297 0
0.0133543 0.00673414 0
0.0143444 0.00683382 0
0.0153769 0.00690031 0
0.0164512 0.00693173 0
0.0175666 0.00692547 0
0.0187219 0.00687822 0
0.0199156 0.00678477 0
0.0211454 0.00663864 0
0.0224084 0.00643275 0
0.0237018 0.00616676 0
0.0250249 0.00584739 0
0.026375 0.00547298 0
0.0277479 0.00503752 0
0.0291386 0.00453545 0
0.0305433 0.0039653 0
0.0319572 0.0033256 0
0.0333681 0.00260019 0
0.034775 0.00179799 0
0.0361793 0.000930615 0
0.0375798 3.12222e-06 0
0.0389689 -0.000988429 0
0.0403357 -0.00205109 0
0.041675 -0.00318283 0
0.0429849 -0.00437751 0
0.0442643 -0.00562904 0
0.0455126 -0.00693089 0
0.0467314 -0.00827518 0
0.0479204 -0.00965638 0
0.0490661 -0.0110799 0
0.0501515 -0.0125519 0
0.0511696 -0.0140695 0
0.0521492 -0.0156071 0
0.0531202 -0.0171411 0
0.0540851 -0.0186663 0
0.0550431 -0.0201798 0
0.0559923 -0.0216793 0
0.0569311 -0.0231626 0
0.0578582 -0.0246273 0
0.0587723 -0.0260715 0
0.0596721 -0.027493 0
0.0605563 -0.02889 0
0.0614241 -0.0302609 0
0.0622742 -0.0316042 0
0.063106 -0.0329183 0
0.0639186 -0.034202 0
0.0647113 -0.0354543 0
0.0654835 -0.0366743 0
0.0662345 -0.0378613 0
0.0669642 -0.0390145 0
0.0676726 -0.0401333 0
0.0683597 -0.0412172 0
0.0690246 -0.0422665 0
0.0696662 -0.0432819 0
0.0702841 -0.0442636 0
0.0708793 -0.0452111 0
0.0714538 -0.0461237 0
0.072009 -0.047001 0
0.0725452 -0.0478434 0
0.0730611 -0.0486524 0
0.073556 -0.0494294 0
0.0740291 -0.0501756 0
0.0744812 -0.0508916 0
0.0749138 -0.0515773 0
0.0753285 -0.0522331 0
0.0757266 -0.0528592 0
0.076109 -0.0534564 0
0.0764753 -0.0540264 0
0.0768243 -0.054571 0
0.0771553 -0.0550919 0
0.0774679 -0.0555901 0
0.0777617 -0.0560669 0
0.0780369 -0.056523 0
0.0782958 -0.0569578 0
0.0785421 -0.0573703 0
0.0787786 -0.0577603 0
0.0790073 -0.0581279 0
0.0792295 -0.058474 0
0.0794462 -0.0587995 0
0.0798803 -0.0594162 0
0.0800272 -0.0596588 0
0.0800357 -0.0598891 0
0.0799275 -0.0600784 0
0.0797205 -0.0601773 0
0.0794593 -0.0601051 0
0.0789155 -0.0596491 0
0.0786707 -0.0593963 0
0.0784111 -0.0591319 0
0.0781372 -0.0588542 0
0.0778566 -0.0585548 0
0.0775715 -0.0582308 0
0.0772803 -0.0578828 0
0.0769832 -0.0575099 0
0.0766822 -0.0571097 0
0.0763801 -0.0566796 0
0.0760759 -0.0562196 0
0.0757623 -0.0557337 0
0.0754359 -0.0552232 0
0.0750951 -0.0546879 0
0.0747379 -0.054128 0
0.0743626 -0.0535435 0
0.0739688 -0.0529338 0
0.0735559 -0.0522981 0
0.0731238 -0.0516357 0
0.0726718 -0.050946 0
0.0721991 -0.0502288 0
0.0717046 -0.049484 0
0.0711872 -0.0487117 0
0.0706461 -0.047912 0
0.0700804 -0.0470849 0
0.0694892 -0.0462308 0
0.0688718 -0.0453499 0
0.0682271 -0.0444431 0
0.0675544 -0.043511 0
0.0668527 -0.0425546 0
0.0661215 -0.0415748 0
0.06536 -0.040573 0
0.0645676 -0.0395504 0
0.0637439 -0.0385087 0
0.0628887 -0.0374493 0
0.062002 -0.0363741 0
0.0610838 -0.0352847 0
0.0601345 -0.0341831 0
0.0591547 -0.033071 0
0.0581456 -0.0319502 0
0.0571083 -0.0308224 0
0.0560444 -0.0296893 0
0.0549562 -0.028552 0
0.053845 -0.0274126 0
0.0527113 -0.0262746 0
0.051554 -0.0251427 0
0.0503724 -0.0240222 0
0.0491675 -0.0229164 0
0.047941 -0.0218282 0
0.0466955 -0.0207597 0
0.0454337 -0.0197126 0
0.0441592 -0.0186878 0
0.0428751 -0.0176863 0
0.0415841 -0.0167097 0
0.0402878 -0.0157609 0
0.0389879 -0.0148428 0
0.0376864 -0.0139575 0
0.0363853 -0.013107 0
0.0350871 -0.0122931 0
0.0337942 -0.0115164 0
0.0325095 -0.0107772 0
0.0312357 -0.0100756 0
0.0299758 -0.00941024 0
0.0287337 -0.00877784 0
0.0275126 -0.00817571 0
0.0263139 -0.00760375 0
0.0251376 -0.00706528 0
0.0239829 -0.0065649 0
0.0228537 -0.00609619 0
0.0217522 -0.00565563 0
0.0206795 -0.00524226 0
0.0196364 -0.00485507 0
0.0186233 -0.00449318 0
0.0176408 -0.00415577 0
0.016689 -0.00384204 0
0.0157682 -0.00355115 0
0.0148783 -0.00328218 0
0.0140192 -0.00303468 0
0.0131906 -0.00280795 0
0.0123925 -0.00260016 0
0.0116246 -0.00241012 0
0.0108864 -0.00223769 0
0.0101774 -0.00208212 0
0.00949701 -0.00194206 0
0.00884483 -0.0018163 0
0.0082202 -0.0017039 0
0.00762247 -0.00160391 0
0.00705097 -0.00151528 0
0.006505 -0.00143697 0
0.0059838 -0.00136806 0
0.00548662 -0.00130772 0
0.00501265 -0.00125519 0
0.00456114 -0.00120954 0
0.00413136 -0.00116914 0
0.00372257 -0.00113251 0
0.00333398 -0.00109853 0
0.00296466 -0.00106798 0
0.00261363 -0.0010431 0
-0.052721 -0.0445996 0
-0.0508204 -0.0440823 0
-0.0489199 -0.0435651 0
-0.0470193 -0.0430478 0
-0.0451187 -0.0425306 0
-0.0432181 -0.0420134 0
-0.0413175 -0.0414961 0
-0.039417 -0.0409789 0
-0.0375164 -0.0404616 0
-0.0356158 -0.0399444 0
-0.0337152 -0.0394271 0
-0.0318146 -0.0389099 0
-0.0299141 -0.0383927 0
-0.0280135 -0.0378754 0
-0.0261129 -0.0373582 0
-0.0242123 -0.0368409 0
-0.0223117 -0.0363237 0
-0.0204112 -0.0358065 0
-0.0185106 -0.0352892 0
-0.01661 -0.034772 0
-0.0147094 -0.0342547 0
-0.0128088 -0.0337375 0
-0.0109083 -0.0332202 0
-0.00900769 -0.032703 0
-0.00710711 -0.0321858 0
-0.00520653 -0.0316685 0
-0.00330595 -0.0311513 0
-0.00140537 -0.030634 0
0.00190689 -0.0299614 0
0.00332271 -0.0298498 0
0.00474133 -0.0297825 0
0.00616136 -0.0297597 0
0.0075814 -0.0297814 0
0.00900007 -0.0298477 0
0.010416 -0.0299583 0
0.0118278 -0.0301127 0
0.0132342 -0.0303103 0
0.0146339 -0.0305504 0
0.0160259 -0.0308322 0
0.0174091 -0.0311546 0
0.0187824 -0.0315166 0
0.020145 -0.031917 0
0.0214961 -0.0323546 0
0.0228351 -0.032828 0
0.0241613 -0.0333361 0
0.0254744 -0.0338774 0
0.0267738 -0.0344507 0
0.0280592 -0.0350545 0
0.0293306 -0.0356877 0
0.0305875 -0.0363488 0
0.0318301 -0.0370367 0
0.0330581 -0.0377501 0
0.0342717 -0.0384879 0
0.0354708 -0.0392489 0
0.0366556 -0.0400321 0
0.0378262 -0.0408363 0
0.0389828 -0.0416607 0
0.0401254 -0.0425042 0
0.0412543 -0.0433659 0
0.0423698 -0.0442451 0
0.043472 -0.0451408 0
0.0445612 -0.0460523 0
0.0456375 -0.0469789 0
0.0467013 -0.0479199 0
0.0477529 -0.0488746 0
0.0487923 -0.0498424 0
0.04982 -0.0508227 0
0.0508362 -0.051815 0
0.051841 -0.0528187 0
0.0528348 -0.0538333 0
0.0538178 -0.0548584 0
0.0547903 -0.0558935 0
0.0557524 -0.0569382 0
0.0567045 -0.0579922 0
0.0576467 -0.0590549 0
0.0585792 -0.0601261 0
0.0595024 -0.0612055 0
0.0604163 -0.0622926 0
0.0613212 -0.0633873 0
0.0622174 -0.0644891 0
0.0631049 -0.0655979 0
0.0639841 -0.0667134 0
0.064855 -0.0678353 0
0.0657179 -0.0689633 0
0.0665729 -0.0700974 0
0.0674202 -0.0712372 0
0.06826 -0.0723826 0
0.0690925 -0.0735333 0
0.0699178 -0.0746892 0
0.070736 -0.0758501 0
0.0715473 -0.0770159 0
0.0723518 -0.0781863 0
0.0731498 -0.0793612 0
0.0739412 -0.0805405 0
0.0747264 -0.081724 0
0.0755053 -0.0829116 0
0.0762781 -0.0841033 0
0.0770449 -0.0852987 0
0.0778059 -0.0864979 0
0.0785611 -0.0877007 0
0.0793108 -0.088907 0
0.0814681 -0.0912706 0
0.0828814 -0.0924245 0
0.0842946 -0.0935783 0
0.0857079 -0.0947322 0
0.0871211 -0.095886 0
0.0885344 -0.0970399 0
0.0899476 -0.0981937 0
0.0913609 -0.0993476 0
0.0927741 -0.100501 0
0.0941874 -0.101655 0
0.0956006 -0.102809 0
0.0970139 -0.103963 0
0.0984272 -0.105117 0
0.0998404 -0.106271 0
0.101254 -0.107424 0
0.102667 -0.108578 0
0.10408 -0.109732 0
0.105493 -0.110886 0
0.106907 -0.11204 0
0.10832 -0.113194 0
0.109733 -0.114348 0
0.111146 -0.115501 0
0.11256 -0.116655 0
0.113973 -0.117809 0
0.115386 -0.118963 0
0.116799 -0.120117 0
0.118213 -0.121271 0
0.119626 -0.122424 0
0.121039 -0.123578 0
0.122452 -0.124732 0
0.123866 -0.125886 0
0.125279 -0.12704 0
0.126692 -0.128194 0
0.128105 -0.129348 0
0.129519 -0.130501 0
0.130932 -0.131655 0
0.132345 -0.132809 0
0.133758 -0.133963 0
0.135172 -0.133216 0
0.135172 -0.131316 0
0.135172 -0.129415 0
0.135172 -0.127514 0
0.135172 -0.125614 0
0.135172 -0.123713 0
0.135172 -0.121813 0
0.135172 -0.119912 0
0.135172 -0.118012 0
0.135172 -0.116111 0
0.135172 -0.11421 0
0.135172 -0.11231 0
0.135172 -0.110409 0
0.135172 -0.108509 0
0.135172 -0.106608 0
0.135172 -0.104708 0
0.135172 -0.102807 0
0.135172 -0.100906 0
0.135172 -0.0990058 0
0.135172 -0.0971052 0
0.135172 -0.0952046 0
0.135172 -0.0933041 0
0.135172 -0.0914035 0
0.135172 -0.0895029 0
0.135172 -0.0876023 0
0.135172 -0.0857017 0
0.135172 -0.0838012 0
0.135172 -0.0819006 0
0.133758 -0.0788462 0
0.132345 -0.0776923 0
0.130932 -0.0765385 0
0.129519 -0.0753846 0
0.128105 -0.0742308 0
0.126692 -0.0730769 0
0.125279 -0.0719231 0
0.123866 -0.0707692 0
0.122452 -0.0696154 0
0.121039 -0.0684615 0
0.119626 -0.0673077 0
0.118213 -0.0661538 0
0.116799 -0.065 0
0.115386 -0.0638462 0
0.113973 -0.0626923 0
0.11256 -0.0615385 0
0.111146 -0.0603846 0
0.109733 -0.0592308 0
0.10832 -0.0580769 0
0.106907 -0.0569231 0
0.105493 -0.0557692 0
0.10408 -0.0546154 0
0.102667 -0.0534615 0
0.101254 -0.0523077 0
0.0998404 -0.0511538 0
0.0984272 -0.05 0
0.0970139 -0.0488462 0
0.0956006 -0.0476923 0
[...]
CELL_DATA 13116
SCALARS rho float
LOOKUP_TABLE default
0.619232
0.694542
0.324577
0.702106
0.705215
0.687454
0.332266
0.701806
0.551893
0.704117
0.336729
0.294478
0.704841
0.330177
0.313213
0.68926
0.616755
0.709267
0.691236
0.344221
0.613641
0.324788
0.322677
0.708836
0.696753
0.698292
0.704222
0.326294
0.698241
0.716081
0.56789
0.299622
0.577449
0.465507
0.328916
0.616414
0.705811
0.69191
0.691956
0.700718
0.690897
0.701997
0.491495
0.325137
0.691309
0.691259
0.693624
0.692392
0.320901
0.536994
0.700998
0.487143
0.334733
0.60946
0.577938
0.668848
0.325723
0.709944
0.547849
0.313323
0.328657
0.70312
0.693892
0.691117
0.57835
0.337426
0.694117
0.717584
0.692916
0.61574
0.3137
0.715393
0.325835
0.331581
0.565392
0.324781
0.69806
0.701087
0.34223
0.710572
0.709977
0.697869
0.70874
0.69312
0.692094
0.412063
0.343263
0.716277
0.699284
0.351162
0.304455
0.693911
0.707157
0.699908
0.712058
0.677988
0.698501
0.557545
0.564005
0.702544
0.713981
0.690882
0.690877
0.426754
0.691796
0.288358
0.371327
0.524814
0.323472
0.695179
0.549306
0.695708
0.676447
0.715253
0.710298
0.696895
0.341338
0.38447
0.69432
0.696556
0.717526
0.329058
0.693052
0.303939
0.699939
0.439055
0.342624
0.515481
0.323988
0.5364
0.694387
0.696236
0.490401
0.32283
0.456573
0.671166
0.559499
0.694322
0.714034
0.696935
0.696612
0.693416
0.516977
0.696477
0.696056
0.303242
0.328921
0.697437
0.707103
0.699772
0.546825
0.692816
0.692307
0.329333
0.705192
0.691666
0.320454
0.711805
0.561851
0.715965
0.709202
0.338424
0.709232
0.322084
0.329914
0.702909
0.699608
0.709525
0.329955
0.422738
0.400916
0.559874
0.312117
0.502977
0.697587
0.32086
0.317566
0.325692
0.695289
0.690965
0.341132
0.410683
0.573538
0.709141
0.691101
0.548492
0.334076
0.689746
0.691644
0.467027
0.701719
0.697141
0.634583
0.315609
0.695408
0.692356
0.705971
0.690168
0.698826
0.366841
0.429238
0.696121
0.510397
0.330784
0.703572
0.6928
0.494341
0.689222
0.306989
0.337978
0.326164
0.692846
0.320274
0.346221
0.345517
0.328882
0.374743
0.689563
0.699869
0.403071
0.326772
0.693982
0.544637
0.341038
0.552112
0.70355
0.696177
0.32649
0.696965
0.385378
0.702681
0.301102
0.647696
0.632379
0.560896
0.701283
0.659453
0.317039
0.431476
0.715474
0.565211
0.691984
0.559805
0.677409
0.701039
0.318555
0.699916
0.704616
0.563851
0.331237
0.322493
0.692536
0.694231
0.608589
0.693993
0.610178
0.71221
0.338114
0.322014
0.371878
0.305429
0.690594
0.70617
0.697672
0.345259
0.690931
0.336821
0.40554
0.692055
0.332345
0.698159
0.701689
0.565359
0.710186
0.316901
0.565221
0.713775
0.561424
0.693764
0.346359
0.342583
0.317796
0.666584
0.327908
0.328141
0.357634
0.346866
0.691899
0.328652
0.698617
0.703427
0.338361
0.342715
0.337686
0.440274
0.327609
0.717059
0.690143
0.693495
0.333107
0.692045
0.711447
0.318423
0.313711
0.685608
0.694143
0.690082
0.333812
0.692434
0.439449
0.695897
0.701862
0.699593
0.701872
0.31674
0.695923
0.313704
0.688398
0.703381
0.716115
0.348558
0.354443
0.704197
0.338861
0.69348
0.703072
0.351707
0.71158
0.708957
0.339702
0.690909
0.707255
0.315778
0.69721
0.406182
0.650331
0.701532
0.412852
0.711741
0.345064
0.709344
0.357881
0.687048
0.688355
0.705381
0.325402
0.372683
0.691661
0.328998
0.696926
0.69251
0.403429
0.56003
0.332473
0.321614
0.694905
0.556475
0.715622
0.342505
0.321069
0.699844
0.703659
0.330199
0.702142
0.337553
0.298096
0.698301
0.701228
0.536358
0.354666
0.693283
0.574727
0.691136
0.690453
0.712045
0.549778
0.338434
0.30784
0.341638
0.691531
0.341722
0.574287
0.354544
0.311277
0.368883
0.542998
0.120987
0.330067
0.691247
0.303738
0.708844
0.699412
0.691692
0.717755
0.700286
0.322331
0.342393
0.372268
0.341606
0.695171
0.671984
0.691154
0.698481
0.69661
0.693915
0.697571
0.697485
0.714827
0.711063
0.710842
0.685414
0.37474
0.494271
0.614194
0.322424
0.688231
0.662751
0.336512
0.696617
0.564538
0.317833
0.346254
0.350364
0.334715
0.695934
0.319498
0.316082
0.693206
0.335701
0.634954
0.35237
0.688582
0.697832
0.329667
0.322749
0.694906
0.433408
0.35362
0.335529
0.348794
0.32324
0.341669
0.3463
0.329401
0.407658
0.344805
0.690211
0.333473
0.693982
0.353389
0.30255
0.453212
0.277451
0.349868
0.280593
0.697607
0.407901
0.702817
0.536651
0.337086
0.690469
0.699766
0.409645
0.712009
0.692726
0.692848
0.340764
0.561107
0.386815
0.710595
0.565401
0.321259
0.325782
0.691148
0.342912
0.411639
0.689279
0.370566
0.712086
0.695249
0.341792
0.316622
0.313689
0.497864
0.313046
0.325145
0.312629
0.314948
0.70248
0.702582
0.449311
0.700671
0.465373
0.694881
0.366982
0.322096
0.556741
0.321534
0.694334
0.324881
0.379116
0.482314
0.691468
0.699138
0.560855
0.350086
0.327197
0.639273
0.70173
0.659176
0.635621
0.692611
0.690528
0.34821
0.6981
0.572917
0.71557
0.353005
0.327591
0.715392
0.70617
0.717525
0.703751
0.694659
0.698749
0.709422
0.715804
0.691598
0.342961
0.691448
0.361162
0.307748
0.347463
0.702191
0.692611
0.351935
0.692311
0.695435
0.348665
0.68331
0.694194
0.708992
0.326021
0.323307
0.697914
0.354664
0.352433
0.276495
0.349216
0.694297
0.320077
0.701737
0.332581
0.694842
0.700804
0.692575
0.704033
0.355147
0.342878
0.693092
0.703188
0.700685
0.702512
0.704797
0.446086
0.339862
0.322356
0.69198
0.548787
0.349965
0.432517
0.310223
0.700245
0.689403
0.352803
0.326341
0.693008
0.417368
0.691296
0.712141
0.324211
0.38453
0.700566
0.563231
0.322126
0.698793
0.699637
0.692959
0.324882
0.560399
0.327489
0.562115
0.715884
0.355995
0.371651
0.328283
0.560747
0.323934
0.341259
0.385836
0.687145
0.695894
0.341314
0.319272
0.350731
0.681929
0.327163
0.691797
0.311526
0.714517
0.703619
0.355454
0.322455
0.322758
0.448652
0.323022
0.698763
0.332442
0.319178
0.688614
0.318654
0.693193
0.693098
0.560575
0.345859
0.694351
0.707569
0.706156
0.692009
0.700432
0.698434
0.294015
0.630433
0.406295
0.69353
0.347082
0.701026
0.526329
0.32881
0.560178
0.709679
0.326512
0.696958
0.304564
0.313986
0.693074
0.695851
0.308465
0.292571
0.341597
0.290052
0.700345
0.708708
0.325274
0.340288
0.697676
0.696181
0.711185
0.70782
0.689192
0.338615
0.705249
0.404098
0.700937
0.384469
0.682445
0.437139
0.695545
0.715454
0.696121
0.363265
0.324946
0.690117
0.698928
0.603719
0.708223
0.306508
0.704325
0.705503
0.382633
0.49165
0.707212
0.352129
0.585645
0.715206
0.350892
0.698885
0.712072
0.323786
0.696357
0.317382
0.694576
0.324966
0.69276
0.693858
0.32493
0.68853
0.70893
0.702568
0.694992
0.697717
0.71462
0.339737
0.433582
0.302119
0.332381
0.559537
0.558491
0.693622
0.707719
0.343036
0.334928
0.697136
0.703577
0.694849
0.701718
0.347875
0.710636
0.704582
0.344596
0.302048
0.694358
0.692371
0.692662
0.286957
0.720816
0.330297
0.697161
0.692943
0.653221
0.693304
0.350304
0.694967
0.696744
0.70784
0.695981
0.690871
0.404554
0.711947
0.337569
0.692932
0.704068
0.422371
0.695931
0.676366
0.700574
0.442363
0.39347
0.718608
0.715846
0.354165
0.356649
0.332189
0.344335
0.695149
0.702215
0.672051
0.348365
0.342365
0.692846
0.711846
0.32002
0.336047
0.43418
0.700025
0.690054
0.69032
0.711743
0.338829
0.354252
0.564031
0.303253
0.345793
0.330928
0.690038
0.329979
0.355334
0.646509
0.692953
0.694774
0.690125
0.689708
0.340627
0.314161
0.333433
0.54608
0.409877
0.302553
0.716979
0.711773
0.693336
0.691693
0.293735
0.347613
0.703826
0.349667
0.690841
0.693774
0.562875
0.308533
0.348977
0.694114
0.566967
0.646949
0.319188
0.691374
0.691014
0.632973
0.699788
0.701455
0.564811
0.692754
0.347636
0.689474
0.593218
0.694922
0.699232
0.559484
0.695816
0.560558
0.693319
0.319329
0.316495
0.348164
0.56802
0.530245
0.350285
0.697111
0.700518
0.293272
0.699311
0.330692
0.701772
0.530795
0.320528
0.703325
0.708759
0.350228
0.556551
0.573233
0.326399
0.700249
0.336749
0.290651
0.690953
0.700597
0.454163
0.691048
0.331592
0.709509
0.316572
0.292763
0.693068
0.350049
0.683138
0.309473
0.699906
0.686857
0.560448
0.699247
0.310139
0.318304
0.692836
0.498581
0.695035
0.477587
0.667574
0.687075
0.708126
0.505767
0.695304
0.69524
0.705661
0.694672
0.362295
0.356724
0.546457
0.695375
0.705689
0.366048
0.690749
0.649236
0.370679
0.30829
0.715024
0.69997
0.559924
0.561586
0.690002
0.713896
0.685228
0.707424
0.306995
0.716403
0.431021
0.699399
0.692314
0.347151
0.700654
0.704998
0.317652
0.314015
0.338389
0.559323
0.339509
0.691225
0.709609
0.716142
0.331406
0.691297
0.330842
0.720797
0.685507
0.650134
0.717323
0.680095
0.700858
0.708173
0.552166
0.693209
0.325302
0.690531
0.692681
0.483471
0.561127
0.700436
0.318371
0.3084
0.325545
0.699722
0.357708
0.561459
0.33387
0.701565
0.324559
0.436886
0.304914
0.710518
0.701667
0.607712
0.321526
0.702885
0.68982
0.337491
0.707897
0.702816
0.301255
0.678028
0.560287
0.703614
0.690945
0.320877
0.521891
0.694152
0.691395
0.693566
0.355304
0.388182
0.691299
0.561093
0.563873
0.559788
0.598368
0.696393
0.591897
0.699416
0.355541
0.329989
0.559789
0.705942
0.68727
0.336416
0.690587
0.62023
0.679564
0.322311
0.398596
0.702385
0.701507
0.568563
0.340506
0.691645
0.561742
0.332164
0.701056
0.712241
0.331359
0.3019
0.312982
0.69274
0.328406
0.343435
0.690764
0.483359
0.705342
0.701229
0.330129
0.340655
0.702262
0.317506
0.319508
0.568012
0.297158
0.368581
0.680299
0.700507
0.694526
0.34186
0.332749
0.33461
0.69328
0.290036
0.694598
0.318631
0.697009
0.698818
0.691263
0.692642
0.695581
0.692813
0.689844
0.704247
0.694729
0.323127
0.334903
0.694943
0.684844
0.460157
0.693337
0.573591
0.684844
0.69436
0.329157
0.697146
0.702991
0.692649
0.33015
0.695205
0.327936
0.693251
0.449723
0.710059
0.691912
0.321913
0.695604
0.350801
0.458956
0.693987
0.329829
0.711843
0.559103
0.700679
0.33372
0.693477
0.342793
0.3075
0.311627
0.3453
0.693968
0.311729
0.69835
0.683613
0.3416
0.315859
0.440319
0.714705
0.704875
0.692524
0.345534
0.338984
0.331467
0.307197
0.318199
0.701355
0.696843
0.327062
0.686727
0.706938
0.314307
0.702905
0.712072
0.689212
0.332703
0.562024
0.697906
0.711747
0.699493
0.313686
0.694709
0.71003
0.695285
0.714888
0.689283
0.329651
0.31262
0.692521
0.540266
0.351158
0.693166
0.315103
0.654392
0.695897
0.693885
0.693895
0.305272
0.692813
0.369467
0.330047
0.711542
0.702385
0.707623
0.699387
0.701403
0.307908
0.704106
0.311879
0.457828
0.702869
0.563299
0.694543
0.331105
0.316185
0.704194
0.331352
0.696036
0.708952
0.404514
0.337132
0.698102
0.309502
0.691821
0.694841
0.700248
0.310071
0.316603
0.507691
0.547643
0.693123
0.477338
0.688707
0.692806
0.694008
0.558743
0.697104
0.333276
0.335322
0.700679
0.689511
0.694279
0.420246
0.332182
0.698457
0.31178
0.689267
0.695361
0.336857
0.695583
0.346378
0.699841
0.324453
0.70624
0.315838
0.693298
0.690952
0.296426
0.699979
0.716172
0.300938
0.667079
0.691144
0.575334
0.285656
0.362929
0.472822
0.707267
0.691438
0.335401
0.712388
0.696299
0.688483
0.333369
0.687881
0.692611
0.414289
0.688801
0.688477
0.344836
0.693958
0.559397
0.324259
0.675582
0.335858
0.701312
0.332193
0.295911
0.706406
0.344614
0.350417
0.311215
0.694165
0.693837
0.380097
0.691681
0.3637
0.697114
0.343903
0.693742
0.356727
0.687303
0.692722
0.700308
0.670807
0.57574
0.691072
0.688691
0.326347
0.704324
0.701252
0.567133
0.697087
0.446136
0.411028
0.704333
0.339114
0.596686
0.331437
0.691059
0.32557
0.315278
0.708806
0.68946
0.342468
0.699157
0.711591
0.5598
0.70155
0.561364
0.347941
0.703142
0.345058
0.320839
0.699738
0.711376
0.70184
0.692782
0.301637
0.331207
0.334056
0.693859
0.681133
0.362435
0.700796
0.338431
0.332291
0.323928
0.699406
0.385233
0.703561
0.694877
0.702773
0.695028
0.694598
0.638614
0.69752
0.408173
0.30128
0.342806
0.561477
0.561796
0.336037
0.699082
0.691616
0.698815
0.320892
0.447758
0.693147
0.301273
0.692367
0.690648
0.346083
0.690346
0.694793
0.350449
0.694442
0.320277
0.693714
0.704932
0.695353
0.311139
0.427429
0.712119
0.348701
0.409463
0.690366
0.354372
0.690428
0.693774
0.697909
0.711316
0.340439
0.561013
0.711725
0.691329
0.373354
0.700433
0.318737
0.302912
0.691162
0.68976
0.682333
0.259006
0.692074
0.702018
0.565445
0.339067
0.33739
0.35471
0.698247
0.333127
0.318608
0.322963
0.68938
0.318889
0.346467
0.411574
0.694538
0.347889
0.662752
0.69086
0.699726
0.33338
0.693659
0.718765
0.684538
0.400692
0.715846
0.327922
0.338782
0.693563
0.342753
0.697372
0.696225
0.560261
0.346776
0.355004
0.327388
0.618933
0.559559
0.263669
0.69201
0.693749
0.710791
0.340868
0.311086
0.360965
0.690753
0.350935
0.558902
0.696367
0.69123
0.691475
0.345897
0.697431
0.297491
0.687014
0.709736
0.703641
0.678248
0.573587
0.715385
0.69426
0.701921
0.336447
0.352381
0.333904
0.710421
0.553454
0.563566
0.346853
0.392494
0.711678
0.693692
0.621921
0.343088
0.700491
0.594448
0.593
0.691438
0.322787
0.343704
0.346485
0.689496
0.676814
0.714976
0.694396
0.361664
0.700817
0.715925
0.67811
0.680113
0.700535
0.703064
0.692768
0.712387
0.708477
0.321247
0.693332
0.700053
0.689143
0.69425
0.689978
0.664156
0.347827
0.286942
0.695123
0.35123
0.340569
0.70117
0.315092
0.702359
0.692693
0.69428
0.692713
0.320176
0.700586
0.312234
0.33358
0.692895
0.695555
0.691755
0.332765
0.701633
0.69116
0.694071
0.689905
0.321997
0.689299
0.704041
0.695626
0.367761
0.709575
0.33612
0.7012
0.327806
0.348007
0.619465
0.423609
0.703351
0.709582
0.691047
0.32172
0.689188
0.38382
0.313584
0.697747
0.443825
0.352849
0.690895
0.304924
0.467753
0.717146
0.694079
0.692746
0.443903
0.70945
0.719286
0.691458
0.664754
0.707442
0.54229
0.70208
0.69404
0.7183
0.289082
0.341476
0.417987
0.698909
0.318935
0.715802
0.699488
0.686984
0.691515
0.590351
0.712521
0.708334
0.332526
0.698872
0.691978
0.580285
0.692017
0.704074
0.698883
0.688412
0.340671
0.317348
0.694099
0.558371
0.59982
0.695544
0.693218
0.692037
0.70609
0.705176
0.69882
0.692774
0.703611
0.314544
0.301554
0.32492
0.33354
0.562233
0.457817
0.58658
0.695519
0.712645
0.32098
0.692757
0.701898
0.333069
0.382237
0.561845
0.693238
0.323248
0.288522
0.277154
0.558451
0.698588
0.3704
0.332394
0.345656
0.300749
0.348061
0.353271
0.70244
0.692563
0.697563
0.335216
0.694144
0.685247
0.694023
0.341726
0.345894
0.697696
0.559525
0.353604
0.688417
0.35003
0.709095
0.321325
0.700151
0.338246
0.693236
0.702319
0.333389
0.622617
0.335943
0.703013
0.296312
0.688982
0.31507
0.522292
0.328059
0.682867
0.338076
0.64526
0.64981
0.695111
0.695394
0.343101
0.69368
0.688804
0.701954
0.683263
0.697826
0.345825
0.442983
0.335274
0.707168
0.325106
0.705286
0.557638
0.711358
0.703568
0.52469
0.711787
0.313788
0.335093
0.315627
0.521446
0.626761
0.693166
0.333834
0.326153
0.693308
0.385637
0.308399
0.655239
0.378001
0.354482
0.289662
0.7019
0.71267
0.691094
0.326663
0.694052
0.689377
0.296885
0.355433
0.695088
0.689368
0.686878
0.467932
0.398914
0.373586
0.330478
0.700466
0.694673
0.54836
0.712047
0.308762
0.627189
0.344823
0.580894
0.704151
0.345948
0.329852
0.695028
0.649695
0.703833
0.708303
0.706842
0.699453
0.703172
0.328665
0.323838
0.332657
0.34715
0.615422
0.563863
0.71341
0.348411
0.345699
0.474361
0.301174
0.692083
0.693808
0.346678
0.350877
0.692563
0.322567
0.719051
0.710392
0.693413
0.688894
0.621962
0.352205
0.338526
0.692174
0.346112
0.445064
0.376296
0.688147
0.692976
0.336349
0.34661
0.561137
0.33748
0.696461
0.707063
0.347814
0.318076
0.327688
0.692627
0.339424
0.559136
0.705207
0.684155
0.291868
0.535562
0.700702
0.691469
0.336685
0.691676
0.695415
0.305009
0.694635
0.701656
0.332107
0.346819
0.694806
0.335529
0.347282
0.692802
0.366208
0.692106
0.712321
0.707966
0.697565
0.7063
0.692796
0.691688
0.334112
0.397373
0.695665
0.694378
0.425221
0.703081
0.355508
0.693255
0.692783
0.622052
0.718777
0.442034
0.43717
0.692807
0.707075
0.693526
0.702083
0.692654
0.561293
0.701216
0.560525
0.70044
0.697975
0.700439
0.559776
0.691545
0.303088
0.698075
0.325706
0.698412
0.693166
0.711435
0.692885
0.711295
0.317713
0.328458
0.352543
0.337995
0.693265
0.340786
0.331924
0.709451
0.290513
0.712729
0.330626
0.692867
0.694671
0.344389
0.385218
0.337896
0.697395
0.327364
0.693056
0.695757
0.326347
0.697747
0.561992
0.343727
0.325354
0.296057
0.710652
0.347569
0.699377
0.588622
0.33891
0.690602
0.690968
0.706915
0.3503
0.651536
0.310782
0.693985
0.685163
0.697363
0.356953
0.694466
0.694706
0.693983
0.393301
0.696508
0.35233
0.347263
0.701445
0.450594
0.704258
0.427041
0.356153
0.413314
0.692703
0.324298
0.303954
0.323951
0.530676
0.562995
0.69526
0.319333
0.680383
0.692607
0.62444
0.474636
0.335658
0.561238
0.356214
0.348544
0.692178
0.347777
0.351121
0.699896
0.702444
0.331572
0.7098
0.327718
0.561786
0.327188
0.698191
0.616675
0.710991
0.690373
0.318302
0.346252
0.310296
0.685474
0.696385
0.713839
0.55666
0.378985
0.339476
0.690605
0.334628
0.69219
0.381558
0.638301
0.717239
0.33662
0.324712
0.350013
0.346833
0.324643
0.694672
0.693604
0.338161
0.693753
0.712145
0.341
0.311623
0.702691
0.350358
0.694531
0.405784
0.711124
0.718917
0.693549
0.561174
0.315652
0.705056
0.699006
0.70201
0.34583
0.691988
0.700303
0.339461
0.699245
0.699377
0.702415
0.693742
0.703255
0.701519
0.70182
0.689239
0.691227
0.343588
0.707579
0.350171
0.486179
0.690382
0.310496
0.692118
0.691224
0.324218
0.693173
0.345858
0.304941
0.700429
0.690482
0.702438
0.338127
0.693738
0.700678
0.327395
0.336166
0.699431
0.689288
0.38443
0.32104
0.710714
0.702635
0.350107
0.715745
0.702808
0.713212
0.336145
0.351714
0.305668
0.718329
0.317368
0.691931
0.710643
0.690723
0.686246
0.694647
0.338144
0.69489
0.694987
0.702424
0.677725
0.314696
0.334284
0.302901
0.709072
0.694904
0.403225
0.719113
0.333553
0.699657
0.696708
0.305364
0.69531
0.692088
0.700975
0.335105
0.34346
0.334307
0.694086
0.70425
0.700246
0.469697
0.693734
0.352889
0.712654
0.565257
0.694633
0.334272
0.697184
0.326037
0.691724
0.299541
0.692937
0.700259
0.327999
0.694467
0.490772
0.559532
0.703329
0.558761
0.699551
0.426168
0.690494
0.691088
0.69533
0.693049
0.436732
0.565554
0.324959
0.691431
0.305239
0.342869
0.310392
0.324613
0.355423
0.336036
0.702607
0.376626
0.317094
0.712531
0.69439
0.693722
0.374489
0.712372
0.712307
0.688875
0.314766
0.67909
0.694953
0.33181
0.321924
0.34482
0.706293
0.463189
0.347276
0.674302
0.29482
0.560543
0.456464
0.340759
0.432574
0.718834
0.335564
0.690336
0.309735
0.55982
0.381352
0.700539
0.385121
0.701239
0.565944
0.690136
0.473588
0.349118
0.700453
0.702797
0.321554
0.307608
0.687553
0.344965
0.709666
0.33484
0.568443
0.3011
0.693157
0.324189
0.702658
0.34267
0.697072
0.694226
0.7062
0.560776
0.324445
0.319324
0.371282
0.698929
0.707933
0.692786
0.633398
0.324689
0.710845
0.335875
0.695751
0.689944
0.413675
0.337219
0.709357
0.692906
0.313582
0.57413
0.70065
0.709098
0.707895
0.309742
0.713579
0.351111
0.708683
0.314839
0.688343
0.697195
0.700133
0.702335
0.340758
0.702155
0.34393
0.331002
0.69545
0.561221
0.571311
0.693617
0.563666
0.351912
0.709081
0.700295
0.701792
0.307815
0.409063
0.713491
0.340396
0.693191
0.699588
0.69126
0.700423
0.315485
0.467307
0.716217
0.326045
0.692952
0.702416
0.492331
0.699946
0.327204
0.692435
0.708828
0.712854
0.699849
0.343955
0.316612
0.693256
0.691949
0.321426
0.347736
0.321681
0.323315
0.317382
0.300542
0.32833
0.350919
0.69336
0.306761
0.335447
0.708471
0.57194
0.560843
0.392777
0.346655
0.692661
0.477759
0.543462
0.705039
0.381087
0.716349
0.668129
0.695859
0.693606
0.327658
0.695043
0.691713
0.323569
0.346092
0.418254
0.690904
0.69671
0.703439
0.690528
0.694705
0.693133
0.35199
0.694963
0.692168
0.699895
0.348712
0.692863
0.689421
0.349434
0.408469
0.33139
0.306835
0.316944
0.684853
0.716557
0.695276
0.34863
0.390126
0.702447
0.295808
0.695115
0.691263
0.691108
0.712672
0.69361
0.330546
0.309181
0.28302
0.634876
0.314566
0.692384
0.282101
0.694816
0.688621
0.693306
0.33197
0.461895
0.41599
0.694344
0.321364
0.343576
0.701477
0.693535
0.698598
0.687073
0.699415
0.709847
0.355595
0.697725
0.706149
0.513245
0.694303
0.702246
0.709689
0.417165
0.402453
0.701795
0.452862
0.69184
0.348795
0.693979
0.69148
0.36867
0.318554
0.694432
0.51791
0.707823
0.695331
0.348415
0.344505
0.559403
0.467434
0.385157
0.691199
0.699373
0.327553
0.691707
0.559714
0.69301
0.35632
0.690057
0.353716
0.692122
0.703881
0.709961
0.695544
0.558308
0.347839
0.359557
0.696359
0.340133
0.694605
0.335384
0.693735
0.302965
0.714659
0.706718
0.560051
0.357019
0.559129
0.563768
0.345021
0.694074
0.29507
0.70208
0.355527
0.337917
0.270466
0.698469
0.690984