# vtk DataFile Version 1.0
unstructured grid
ascii
DATASET UNSTRUCTURED_GRID
points 13672 float
0.0796578 -0.059106 0
0.00128732 0.00159165 0
0.00227961 -0.00102548 0
0.0791586 -0.0598787 0
-0.0546216 0.01 0
0.000495206 0.025 0
0.0800549 -0.035 0
0.135172 -0.08 0
-0.0546216 -0.0451168 0
0.000495206 -0.0301168 0
0.0800549 -0.0901168 0
0.135172 -0.135117 0
-0.0546216 -0.0451168 -0.00551168
0.000495206 -0.0301168 -0.00551168
0.0800549 -0.0901168 -0.00551168
0.135172 -0.135117 -0.00551168
0.135172 -0.08 -0.00551168
0.0800549 -0.035 -0.00551168
0.000495206 0.025 -0.00551168
-0.0546216 0.01 -0.00551168
0.00128732 0.00159165 -0.00551168
0.00227961 -0.00102548 -0.00551168
0.0791586 -0.0598787 -0.00551168
0.0796578 -0.059106 -0.00551168
0.00165953 -0.000990923 0
0.00119576 -0.000874076 0
0.000866021 -0.000641801 0
0.000645147 -0.000349912 0
0.00052235 -1.7281e-05 0
0.00049972 0.000348016 0
0.000601632 0.000737716 0
0.000861774 0.0011403 0
0.00157235 0.00183217 0
0.00188647 0.00206725 0
0.00222612 0.00230203 0
0.00258713 0.00254351 0
0.00296826 0.00279524 0
0.00337118 0.00305664 0
0.00379785 0.00332658 0
0.00425045 0.00360349 0
0.00473139 0.00388521 0
0.0052432 0.00416895 0
0.0057881 0.00445204 0
0.00636753 0.00473281 0
0.00698281 0.00500961 0
0.00763526 0.00528058 0
0.00832616 0.00554366 0
0.00905691 0.00579603 0
0.00982918 0.00603333 0
0.0106445 0.00625033 0
0.0115038 0.00644128 0
0.0124073 0.00660297 0
0.0133543 0.00673414 0
0.0143444 0.00683382 0
0.0153769 0.00690031 0
0.0164512 0.00693173 0
0.0175666 0.00692547 0
0.0187219 0.00687822 0
0.0199156 0.00678477 0
0.0211454 0.00663864 0
0.0224084 0.00643275 0
0.0237018 0.00616676 0
0.0250249 0.00584739 0
0.026375 0.00547298 0
0.0277479 0.00503752 0
0.0291386 0.00453545 0
0.0305433 0.0039653 0
0.0319572 0.0033256 0
0.0333681 0.00260019 0
0.034775 0.00179799 0
0.0361793 0.000930615 0
0.0375798 3.12222e-06 0
0.0389689 -0.000988429 0
0.0403357 -0.00205109 0
0.041675 -0.00318283 0
0.0429849 -0.00437751 0
0.0442643 -0.00562904 0
0.0455126 -0.00693089 0
0.0467314 -0.00827518 0
0.0479204 -0.00965638 0
0.0490661 -0.0110799 0
0.0501515 -0.0125519 0
0.0511696 -0.0140695 0
0.0521492 -0.0156071 0
0.0531202 -0.0171411 0
0.0540851 -0.0186663 0
0.0550431 -0.0201798 0
0.0559923 -0.0216793 0
0.0569311 -0.0231626 0
0.0578582 -0.0246273 0
0.0587723 -0.0260715 0
0.0596721 -0.027493 0
0.0605563 -0.02889 0
0.0614241 -0.0302609 0
0.0622742 -0.0316042 0
0.063106 -0.0329183 0
0.0639186 -0.034202 0
0.0647113 -0.0354543 0
0.0654835 -0.0366743 0
0.0662345 -0.0378613 0
0.0669642 -0.0390145 0
0.0676726 -0.0401333 0
0.0683597 -0.0412172 0
0.0690246 -0.0422665 0
0.0696662 -0.0432819 0
0.0702841 -0.0442636 0
0.0708793 -0.0452111 0
0.0714538 -0.0461237 0
0.072009 -0.047001 0
0.0725452 -0.0478434 0
0.0730611 -0.0486524 0
0.073556 -0.0494294 0
0.0740291 -0.0501756 0
0.0744812 -0.0508916 0
0.0749138 -0.0515773 0
0.0753285 -0.0522331 0
0.0757266 -0.0528592 0
0.076109 -0.0534564 0
0.0764753 -0.0540264 0
0.0768243 -0.054571 0
0.0771553 -0.0550919 0
0.0774679 -0.0555901 0
0.0777617 -0.0560669 0
0.0780369 -0.056523 0
0.0782958 -0.0569578 0
0.0785421 -0.0573703 0
0.0787786 -0.0577603 0
0.0790073 -0.0581279 0
0.0792295 -0.058474 0
0.0794462 -0.0587995 0
0.0798803 -0.0594162 0
0.0800272 -0.0596588 0
0.0800357 -0.0598891 0
0.0799275 -0.0600784 0
0.0797205 -0.0601773 0
0.0794593 -0.0601051 0
0.0789155 -0.0596491 0
0.0786707 -0.0593963 0
0.0784111 -0.0591319 0
0.0781372 -0.0588542 0
0.0778566 -0.0585548 0
0.0775715 -0.0582308 0
0.0772803 -0.0578828 0
0.0769832 -0.0575099 0
0.0766822 -0.0571097 0
0.0763801 -0.0566796 0
0.0760759 -0.0562196 0
0.0757623 -0.0557337 0
0.0754359 -0.0552232 0
0.0750951 -0.0546879 0
0.0747379 -0.054128 0
0.0743626 -0.0535435 0
0.0739688 -0.0529338 0
0.0735559 -0.0522981 0
0.0731238 -0.0516357 0
0.0726718 -0.050946 0
0.0721991 -0.0502288 0
0.0717046 -0.049484 0
0.0711872 -0.0487117 0
0.0706461 -0.047912 0
0.0700804 -0.0470849 0
0.0694892 -0.0462308 0
0.0688718 -0.0453499 0
0.0682271 -0.0444431 0
0.0675544 -0.043511 0
0.0668527 -0.0425546 0
0.0661215 -0.0415748 0
0.06536 -0.040573 0
0.0645676 -0.0395504 0
0.0637439 -0.0385087 0
0.0628887 -0.0374493 0
0.062002 -0.0363741 0
0.0610838 -0.0352847 0
0.0601345 -0.0341831 0
0.0591547 -0.033071 0
0.0581456 -0.0319502 0
0.0571083 -0.0308224 0
0.0560444 -0.0296893 0
0.0549562 -0.028552 0
0.053845 -0.0274126 0
0.0527113 -0.0262746 0
0.051554 -0.0251427 0
0.0503724 -0.0240222 0
0.0491675 -0.0229164 0
0.047941 -0.0218282 0
0.0466955 -0.0207597 0
0.0454337 -0.0197126 0
0.0441592 -0.0186878 0
0.0428751 -0.0176863 0
0.0415841 -0.0167097 0
0.0402878 -0.0157609 0
0.0389879 -0.0148428 0
0.0376864 -0.0139575 0
0.0363853 -0.013107 0
0.0350871 -0.0122931 0
0.0337942 -0.0115164 0
0.0325095 -0.0107772 0
0.0312357 -0.0100756 0
0.0299758 -0.00941024 0
0.0287337 -0.00877784 0
0.0275126 -0.00817571 0
0.0263139 -0.00760375 0
0.0251376 -0.00706528 0
0.0239829 -0.0065649 0
0.0228537 -0.00609619 0
0.0217522 -0.00565563 0
0.0206795 -0.00524226 0
0.0196364 -0.00485507 0
0.0186233 -0.00449318 0
0.0176408 -0.00415577 0
0.016689 -0.00384204 0
0.0157682 -0.00355115 0
0.0148783 -0.00328218 0
0.0140192 -0.00303468 0
0.0131906 -0.00280795 0
0.0123925 -0.00260016 0
0.0116246 -0.00241012 0
0.0108864 -0.00223769 0
0.0101774 -0.00208212 0
0.00949701 -0.00194206 0
0.00884483 -0.0018163 0
0.0082202 -0.0017039 0
0.00762247 -0.00160391 0
0.00705097 -0.00151528 0
0.006505 -0.00143697 0
0.0059838 -0.00136806 0
0.00548662 -0.00130772 0
0.00501265 -0.00125519 0
0.00456114 -0.00120954 0
0.00413136 -0.00116914 0
0.00372257 -0.00113251 0
0.00333398 -0.00109853 0
0.00296466 -0.00106798 0
0.00261363 -0.0010431 0
-0.052721 -0.0445996 0
-0.0508204 -0.0440823 0
-0.0489199 -0.0435651 0
-0.0470193 -0.0430478 0
-0.0451187 -0.0425306 0
-0.0432181 -0.0420134 0
-0.0413175 -0.0414961 0
-0.039417 -0.0409789 0
-0.0375164 -0.0404616 0
-0.0356158 -0.0399444 0
-0.0337152 -0.0394271 0
-0.0318146 -0.0389099 0
-0.0299141 -0.0383927 0
-0.0280135 -0.0378754 0
-0.0261129 -0.0373582 0
-0.0242123 -0.0368409 0
-0.0223117 -0.0363237 0
-0.0204112 -0.0358065 0
-0.0185106 -0.0352892 0
-0.01661 -0.034772 0
-0.0147094 -0.0342547 0
-0.0128088 -0.0337375 0
-0.0109083 -0.0332202 0
-0.00900769 -0.032703 0
-0.00710711 -0.0321858 0
-0.00520653 -0.0316685 0
-0.00330595 -0.0311513 0
-0.00140537 -0.030634 0
0.00190689 -0.0299614 0
0.00332271 -0.0298498 0
0.00474133 -0.0297825 0
0.00616136 -0.0297597 0
0.0075814 -0.0297814 0
0.00900007 -0.0298477 0
0.010416 -0.0299583 0
0.0118278 -0.0301127 0
0.0132342 -0.0303103 0
0.0146339 -0.0305504 0
0.0160259 -0.0308322 0
0.0174091 -0.0311546 0
0.0187824 -0.0315166 0
0.020145 -0.031917 0
0.0214961 -0.0323546 0
0.0228351 -0.032828 0
0.0241613 -0.0333361 0
0.0254744 -0.0338774 0
0.0267738 -0.0344507 0
0.0280592 -0.0350545 0
0.0293306 -0.0356877 0
0.0305875 -0.0363488 0
0.0318301 -0.0370367 0
0.0330581 -0.0377501 0
0.0342717 -0.0384879 0
0.0354708 -0.0392489 0
0.0366556 -0.0400321 0
0.0378262 -0.0408363 0
0.0389828 -0.0416607 0
0.0401254 -0.0425042 0
0.0412543 -0.0433659 0
0.0423698 -0.0442451 0
0.043472 -0.0451408 0
0.0445612 -0.0460523 0
0.0456375 -0.0469789 0
0.0467013 -0.0479199 0
0.0477529 -0.0488746 0
0.0487923 -0.0498424 0
0.04982 -0.0508227 0
0.0508362 -0.051815 0
0.051841 -0.0528187 0
0.0528348 -0.0538333 0
0.0538178 -0.0548584 0
0.0547903 -0.0558935 0
0.0557524 -0.0569382 0
0.0567045 -0.0579922 0
0.0576467 -0.0590549 0
0.0585792 -0.0601261 0
0.0595024 -0.0612055 0
0.0604163 -0.0622926 0
0.0613212 -0.0633873 0
0.0622174 -0.0644891 0
0.0631049 -0.0655979 0
0.0639841 -0.0667134 0
0.064855 -0.0678353 0
0.0657179 -0.0689633 0
0.0665729 -0.0700974 0
0.0674202 -0.0712372 0
0.06826 -0.0723826 0
0.0690925 -0.0735333 0
0.0699178 -0.0746892 0
0.070736 -0.0758501 0
0.0715473 -0.0770159 0
0.0723518 -0.0781863 0
0.0731498 -0.0793612 0
0.0739412 -0.0805405 0
0.0747264 -0.081724 0
0.0755053 -0.0829116 0
0.0762781 -0.0841033 0
0.0770449 -0.0852987 0
0.0778059 -0.0864979 0
0.0785611 -0.0877007 0
0.0793108 -0.088907 0
0.0814681 -0.0912706 0
0.0828814 -0.0924245 0
0.0842946 -0.0935783 0
0.0857079 -0.0947322 0
0.0871211 -0.095886 0
0.0885344 -0.0970399 0
0.0899476 -0.0981937 0
0.0913609 -0.0993476 0
0.0927741 -0.100501 0
0.0941874 -0.101655 0
0.0956006 -0.102809 0
0.0970139 -0.103963 0
0.0984272 -0.105117 0
0.0998404 -0.106271 0
0.101254 -0.107424 0
0.102667 -0.108578 0
0.10408 -0.109732 0
0.105493 -0.110886 0
0.106907 -0.11204 0
0.10832 -0.113194 0
0.109733 -0.114348 0
0.111146 -0.115501 0
0.11256 -0.116655 0
0.113973 -0.117809 0
0.115386 -0.118963 0
0.116799 -0.120117 0
0.118213 -0.121271 0
0.119626 -0.122424 0
0.121039 -0.123578 0
0.122452 -0.124732 0
0.123866 -0.125886 0
0.125279 -0.12704 0
0.126692 -0.128194 0
0.128105 -0.129348 0
0.129519 -0.130501 0
0.130932 -0.131655 0
0.132345 -0.132809 0
0.133758 -0.133963 0
0.135172 -0.133216 0
0.135172 -0.131316 0
0.135172 -0.129415 0
0.135172 -0.127514 0
0.135172 -0.125614 0
0.135172 -0.123713 0
0.135172 -0.121813 0
0.135172 -0.119912 0
0.135172 -0.118012 0
0.135172 -0.116111 0
0.135172 -0.11421 0
0.135172 -0.11231 0
0.135172 -0.110409 0
0.135172 -0.108509 0
0.135172 -0.106608 0
0.135172 -0.104708 0
0.135172 -0.102807 0
0.135172 -0.100906 0
0.135172 -0.0990058 0
0.135172 -0.0971052 0
0.135172 -0.0952046 0
0.135172 -0.0933041 0
0.135172 -0.0914035 0
0.135172 -0.0895029 0
0.135172 -0.0876023 0
0.135172 -0.0857017 0
0.135172 -0.0838012 0
0.135172 -0.0819006 0
0.133758 -0.0788462 0
0.132345 -0.0776923 0
0.130932 -0.0765385 0
0.129519 -0.0753846 0
0.128105 -0.0742308 0
0.126692 -0.0730769 0
0.125279 -0.0719231 0
0.123866 -0.0707692 0
0.122452 -0.0696154 0
0.121039 -0.0684615 0
0.119626 -0.0673077 0
0.118213 -0.0661538 0
0.116799 -0.065 0
0.115386 -0.0638462 0
0.113973 -0.0626923 0
0.11256 -0.0615385 0
0.111146 -0.0603846 0
0.109733 -0.0592308 0
0.10832 -0.0580769 0
0.106907 -0.0569231 0
0.105493 -0.0557692 0
0.10408 -0.0546154 0
0.102667 -0.0534615 0
0.101254 -0.0523077 0
0.0998404 -0.0511538 0
0.0984272 -0.05 0
0.0970139 -0.0488462 0
0.0956006 -0.0476923 0
[...]
CELL_DATA 13116
SCALARS rho float
LOOKUP_TABLE default
0.634725
0.692769
0.335414
0.708111
0.699731
0.6861
0.350632
0.702997
0.581783
0.715114
0.352164
0.317913
0.699439
0.343373
0.337319
0.686123
0.637154
0.720565
0.691174
0.346934
0.629157
0.342883
0.337948
0.719931
0.656249
0.690161
0.715814
0.339535
0.637102
0.715413
0.580423
0.324009
0.606236
0.461622
0.34662
0.632349
0.703282
0.691127
0.685482
0.689271
0.691332
0.704237
0.51297
0.333275
0.690783
0.691129
0.68711
0.693389
0.347229
0.560938
0.698762
0.499014
0.347755
0.632724
0.606484
0.635317
0.333641
0.703656
0.574044
0.345126
0.342257
0.710366
0.690054
0.685638
0.611727
0.339434
0.694645
0.708977
0.695624
0.652031
0.336216
0.625745
0.341626
0.33627
0.557529
0.328939
0.693909
0.697527
0.350726
0.720712
0.702566
0.690148
0.717005
0.69376
0.690176
0.45906
0.345719
0.711785
0.68833
0.354943
0.329115
0.69268
0.719103
0.689182
0.708982
0.657902
0.669295
0.557318
0.556908
0.637745
0.728451
0.68058
0.690836
0.432286
0.686143
0.33489
0.415829
0.551916
0.337783
0.703785
0.578625
0.687829
0.652607
0.704585
0.720533
0.692396
0.344488
0.416406
0.696629
0.694238
0.709903
0.34428
0.695898
0.328995
0.689808
0.448894
0.345609
0.502127
0.337024
0.556513
0.69679
0.696226
0.493492
0.344936
0.473968
0.670159
0.558479
0.696867
0.729069
0.692809
0.689502
0.687132
0.505459
0.68918
0.690438
0.341452
0.34569
0.689435
0.700571
0.698437
0.525347
0.693437
0.693327
0.334781
0.702193
0.690009
0.336168
0.726339
0.562576
0.714271
0.718983
0.352324
0.702368
0.337013
0.344248
0.70101
0.689539
0.720366
0.348184
0.461133
0.437446
0.558094
0.33781
0.490177
0.687023
0.337567
0.336974
0.342257
0.687549
0.692308
0.346121
0.44172
0.602105
0.704344
0.692486
0.576102
0.336807
0.68929
0.684695
0.466193
0.697182
0.689085
0.664983
0.332954
0.687203
0.690824
0.716175
0.689432
0.688394
0.388257
0.433894
0.772388
0.497565
0.337858
0.698824
0.692288
0.512354
0.678087
0.342976
0.348933
0.329752
0.69405
0.336062
0.349968
0.355282
0.333954
0.405286
0.69019
0.69002
0.457039
0.333321
0.694264
0.573234
0.346384
0.531411
0.711908
0.690264
0.339962
0.688637
0.434621
0.706509
0.325454
0.671745
0.60849
0.557647
0.68943
0.677377
0.356381
0.444133
0.719926
0.558673
0.691864
0.559086
0.686717
0.700101
0.337806
0.698138
0.702043
0.559715
0.344819
0.348367
0.69273
0.696326
0.644233
0.6949
0.630018
0.708203
0.352559
0.364946
0.397255
0.342664
0.684251
0.715441
0.693047
0.347451
0.689921
0.338647
0.445558
0.686545
0.340304
0.690196
0.700091
0.557804
0.702552
0.354961
0.557791
0.703291
0.556898
0.69672
0.350268
0.344362
0.334012
0.667269
0.342871
0.34952
0.406051
0.377511
0.691317
0.347991
0.689519
0.698874
0.340426
0.345954
0.339477
0.454569
0.339203
0.711141
0.677988
0.687179
0.341119
0.694244
0.548984
0.3618
0.343971
0.68598
0.696107
0.689486
0.336296
0.690788
0.442814
0.695908
0.703735
0.698404
0.702797
0.333494
0.690225
0.341122
0.686285
0.714959
0.732963
0.351256
0.404371
0.702864
0.340607
0.688041
0.709528
0.370485
0.72458
0.716274
0.341409
0.690042
0.718902
0.344969
0.697253
0.463185
0.541905
0.699439
0.465112
0.725859
0.346942
0.718549
0.413504
0.68949
0.680988
0.717533
0.339016
0.410222
0.690116
0.335419
0.698
0.685337
0.436664
0.557983
0.336253
0.335918
0.696488
0.533796
0.706577
0.344117
0.336564
0.698409
0.698954
0.34658
0.698604
0.342756
0.342649
0.687057
0.698705
0.567564
0.357351
0.695979
0.593202
0.686011
0.68998
0.70113
0.525834
0.350868
0.340921
0.346189
0.685872
0.346626
0.602939
0.374881
0.331192
0.40763
0.573652
0.160362
0.336322
0.690294
0.31953
0.702572
0.639233
0.692068
0.713913
0.697685
0.336437
0.344241
0.394958
0.357007
0.697114
0.64865
0.691442
0.63859
0.691373
0.698915
0.68977
0.693372
0.715487
0.699937
0.721266
0.686049
0.40095
0.504015
0.632086
0.339637
0.677043
0.635582
0.347332
0.691215
0.558661
0.334177
0.349111
0.352513
0.337957
0.793283
0.333571
0.333212
0.69384
0.337604
0.613143
0.353951
0.685714
0.699987
0.341438
0.34363
0.696594
0.453684
0.354397
0.338406
0.356319
0.33788
0.343523
0.349339
0.34744
0.446749
0.352918
0.679654
0.34623
0.689752
0.369896
0.32818
0.497131
0.337819
0.354863
0.336242
0.689433
0.44509
0.750352
0.565611
0.338919
0.685839
0.688723
0.455914
0.724511
0.698329
0.697604
0.34261
0.559299
0.419243
0.702176
0.566044
0.33603
0.34776
0.684481
0.358283
0.462904
0.681756
0.413601
0.726255
0.690266
0.345313
0.335241
0.336327
0.485995
0.342308
0.346648
0.336909
0.341877
0.706768
0.709917
0.459134
0.639943
0.47564
0.686939
0.397711
0.331578
0.587215
0.336361
0.694803
0.382551
0.414819
0.490088
0.690888
0.689964
0.536241
0.368016
0.34849
0.536834
0.702527
0.676325
0.535321
0.686849
0.684076
0.352456
0.699909
0.601441
0.722614
0.383598
0.339202
0.704758
0.718137
0.715687
0.714106
0.688466
0.690748
0.717618
0.729442
0.69199
0.350631
0.690784
0.419818
0.344414
0.351377
0.709291
0.692293
0.393797
0.690041
0.797975
0.351488
0.68548
0.69582
0.700778
0.339347
0.33248
0.697666
0.354902
0.354694
0.322864
0.352451
0.694312
0.345703
0.708443
0.345448
0.693038
0.698569
0.695767
0.699107
0.355239
0.346667
0.693399
0.707083
0.700009
0.706378
0.702079
0.491
0.341556
0.337314
0.693895
0.577123
0.3524
0.455546
0.331015
0.6924
0.688999
0.384503
0.344459
0.689786
0.46885
0.690403
0.739374
0.336857
0.432355
0.698754
0.559086
0.337031
0.689835
0.689686
0.692973
0.330464
0.558413
0.333966
0.561617
0.72056
0.357751
0.40178
0.348664
0.558203
0.337938
0.34961
0.417792
0.685874
0.698548
0.350024
0.361606
0.353385
0.685343
0.342821
0.692496
0.343181
0.627531
0.712761
0.372729
0.337214
0.337583
0.492696
0.337809
0.690777
0.334788
0.329953
0.68582
0.339625
0.691043
0.687443
0.558186
0.351914
0.694807
0.71081
0.713632
0.693965
0.695112
0.686714
0.320912
0.660062
0.45858
0.693272
0.349436
0.70022
0.551513
0.347891
0.584265
0.700492
0.334999
0.696212
0.329152
0.334904
0.694059
0.689287
0.331052
0.337668
0.350507
0.309027
0.693434
0.720042
0.331171
0.343805
0.698158
0.697586
0.630224
0.70783
0.688402
0.352456
0.716798
0.440619
0.698715
0.415856
0.644307
0.477646
0.689553
0.706216
0.555645
0.39404
0.338823
0.689425
0.621317
0.626396
0.706482
0.341595
0.701597
0.701563
0.443718
0.502078
0.709123
0.372196
0.62184
0.722582
0.40305
0.694793
0.710041
0.33626
0.698748
0.333879
0.689005
0.329709
0.693777
0.689416
0.339048
0.685675
0.703477
0.698487
0.797651
0.697999
0.541828
0.362668
0.439303
0.328328
0.337061
0.558189
0.533543
0.696953
0.700522
0.349439
0.350964
0.698012
0.714198
0.696815
0.700492
0.350095
0.721035
0.700826
0.347446
0.326975
0.696712
0.692628
0.689729
0.302535
0.552481
0.34214
0.699374
0.687066
0.673463
0.692425
0.352409
0.694896
0.689501
0.718129
0.689289
0.691822
0.459248
0.700594
0.348046
0.685014
0.708712
0.459162
0.691212
0.682885
0.698549
0.443215
0.422338
0.545592
0.720063
0.354586
0.357648
0.339061
0.353239
0.693728
0.701392
0.68131
0.378217
0.352951
0.695344
0.727289
0.345499
0.35269
0.462004
0.701143
0.689353
0.689943
0.70335
0.349674
0.354706
0.558077
0.328606
0.349657
0.333419
0.689995
0.341763
0.355349
0.630979
0.693455
0.687344
0.685821
0.689383
0.3433
0.336126
0.340049
0.576157
0.447514
0.327091
0.707938
0.704149
0.689311
0.69321
0.31209
0.35289
0.714013
0.352876
0.691664
0.689065
0.56742
0.331041
0.356412
0.688287
0.587149
0.654739
0.345817
0.690187
0.685802
0.62837
0.6985
0.700441
0.557958
0.686763
0.350139
0.689267
0.62555
0.686218
0.699929
0.558159
0.688059
0.560529
0.696552
0.330529
0.330115
0.35311
0.588104
0.556368
0.353096
0.697834
0.69855
0.321666
0.69926
0.342612
0.698267
0.560001
0.354209
0.713048
0.720051
0.352701
0.528062
0.592563
0.336373
0.689464
0.339843
0.337672
0.693981
0.647601
0.495855
0.690995
0.338
0.701637
0.333731
0.321212
0.691727
0.352305
0.663361
0.33085
0.69813
0.644999
0.559191
0.689415
0.340056
0.329557
0.684217
0.522925
0.696856
0.469637
0.648606
0.686053
0.718399
0.530293
0.654977
0.687367
0.71595
0.696062
0.4166
0.357069
0.525491
0.687243
0.71786
0.391336
0.690606
0.655967
0.393429
0.330678
0.731757
0.701521
0.559783
0.560521
0.682179
0.703198
0.685867
0.703285
0.329677
0.720345
0.458779
0.695355
0.692347
0.382816
0.699578
0.69927
0.330623
0.351391
0.340308
0.558108
0.352175
0.692406
0.70033
0.724336
0.377184
0.690872
0.339329
0.549895
0.685478
0.670596
0.708526
0.684984
0.71193
0.702451
0.582216
0.693127
0.330303
0.690728
0.695606
0.503053
0.561682
0.700945
0.33426
0.340824
0.336073
0.698633
0.3576
0.560463
0.33992
0.702273
0.346847
0.479623
0.333562
0.702358
0.699757
0.628591
0.371434
0.710898
0.690489
0.345394
0.630381
0.71072
0.326201
0.636799
0.558873
0.711197
0.692098
0.335328
0.548294
0.697353
0.691485
0.68551
0.356135
0.418678
0.690358
0.557955
0.558885
0.557923
0.62009
0.696476
0.616054
0.690263
0.355994
0.338533
0.558079
0.700047
0.685929
0.338711
0.690685
0.632915
0.673256
0.328651
0.442245
0.698642
0.706003
0.598939
0.354043
0.692758
0.562102
0.350261
0.656191
0.703601
0.349405
0.328038
0.339942
0.684918
0.345714
0.35094
0.690052
0.475155
0.716435
0.700351
0.349016
0.342358
0.70309
0.329758
0.332777
0.585031
0.339689
0.398563
0.63951
0.695236
0.695453
0.353234
0.344819
0.35025
0.688043
0.335311
0.695422
0.336317
0.697673
0.693199
0.690616
0.68713
0.695074
0.687029
0.689278
0.699212
0.695586
0.346247
0.343784
0.694128
0.685901
0.500419
0.686102
0.604942
0.685781
0.684528
0.340907
0.692275
0.71173
0.692814
0.342907
0.695143
0.340131
0.693894
0.493313
0.71994
0.693813
0.354444
0.697401
0.352984
0.457012
0.690442
0.332349
0.72686
0.558035
0.697035
0.337042
0.692566
0.35367
0.330591
0.331142
0.355314
0.682038
0.339489
0.692264
0.683319
0.355555
0.333055
0.485784
0.574272
0.713833
0.686223
0.351815
0.340772
0.348417
0.336152
0.366862
0.709297
0.688681
0.33986
0.686445
0.699815
0.340325
0.712536
0.727489
0.684649
0.343753
0.561365
0.697983
0.700177
0.695766
0.341492
0.696048
0.700234
0.695223
0.731634
0.689702
0.353378
0.331501
0.69332
0.522271
0.356843
0.690685
0.334625
0.542988
0.698286
0.688872
0.689327
0.329615
0.685801
0.393815
0.341982
0.722692
0.698445
0.700576
0.697619
0.701975
0.330893
0.698873
0.344336
0.499194
0.699992
0.553738
0.69715
0.343925
0.357946
0.70479
0.373551
0.697403
0.74379
0.440228
0.358346
0.687961
0.330784
0.693577
0.697402
0.699056
0.331023
0.330713
0.497613
0.576949
0.698762
0.474615
0.68684
0.686443
0.689657
0.558201
0.698175
0.349863
0.355726
0.697602
0.689965
0.685405
0.45998
0.337564
0.699784
0.338721
0.688794
0.747432
0.349241
0.696948
0.351682
0.692444
0.335566
0.700287
0.352977
0.694062
0.692254
0.32368
0.689587
0.718655
0.324031
0.681807
0.690815
0.605701
0.341424
0.387968
0.470158
0.711454
0.683386
0.350294
0.551293
0.698503
0.68583
0.378363
0.687218
0.69133
0.469037
0.687539
0.686038
0.386257
0.695048
0.559672
0.334658
0.658355
0.3393
0.696856
0.336978
0.341164
0.718179
0.353358
0.353659
0.339756
0.693358
0.690164
0.4069
0.692579
0.389904
0.695578
0.353844
0.691036
0.378011
0.686017
0.693596
0.697155
0.683063
0.529551
0.692281
0.684784
0.338679
0.739095
0.699154
0.596527
0.697926
0.491274
0.425433
0.699033
0.344511
0.612546
0.343317
0.691195
0.346271
0.332859
0.720327
0.689106
0.345935
0.693362
0.705032
0.558204
0.700078
0.561436
0.350466
0.713426
0.348624
0.336115
0.688616
0.702959
0.703619
0.689861
0.325158
0.336022
0.350223
0.692171
0.682978
0.388009
0.696676
0.340486
0.336392
0.328537
0.689011
0.416932
0.701112
0.695935
0.742718
0.689207
0.695299
0.633326
0.69195
0.452003
0.327899
0.346335
0.560758
0.561563
0.338793
0.705472
0.683846
0.693796
0.33558
0.447074
0.686802
0.358213
0.685794
0.678984
0.349743
0.691502
0.693777
0.353505
0.695083
0.334802
0.696934
0.717516
0.695088
0.339806
0.474242
0.7265
0.391366
0.46598
0.689459
0.391518
0.691568
0.695963
0.689964
0.707537
0.353145
0.58069
0.72109
0.691323
0.423936
0.697525
0.336879
0.344222
0.690409
0.689317
0.689419
0.31448
0.694365
0.74885
0.556272
0.340775
0.343768
0.354902
0.697964
0.350833
0.338346
0.335013
0.677916
0.335365
0.381276
0.456071
0.695112
0.351773
0.681756
0.690548
0.689639
0.336427
0.694689
0.715092
0.685605
0.443149
0.73395
0.344006
0.344618
0.690827
0.346121
0.699761
0.698511
0.558537
0.350951
0.4058
0.335797
0.536138
0.55902
0.318038
0.69115
0.693609
0.708299
0.35289
0.343232
0.414477
0.683215
0.353297
0.558147
0.633886
0.691243
0.690482
0.350656
0.697984
0.321735
0.674548
0.742131
0.71449
0.672749
0.602737
0.729005
0.685672
0.697616
0.340661
0.368918
0.335892
0.719603
0.582439
0.555909
0.350874
0.426255
0.702131
0.694729
0.648741
0.346571
0.689303
0.535128
0.538575
0.683727
0.337757
0.34716
0.386636
0.6893
0.682987
0.733457
0.686596
0.409473
0.698428
0.732509
0.683712
0.685062
0.696816
0.712072
0.685547
0.702944
0.700831
0.33598
0.695034
0.697792
0.68969
0.695652
0.689364
0.666575
0.351049
0.33254
0.685375
0.356296
0.353487
0.689516
0.332166
0.755096
0.695395
0.691693
0.692871
0.334901
0.6895
0.331291
0.339639
0.685716
0.695835
0.693338
0.335305
0.698563
0.691181
0.684729
0.689422
0.339968
0.689842
0.706775
0.694608
0.390043
0.714207
0.350687
0.706255
0.330654
0.351311
0.638144
0.455186
0.712818
0.702843
0.692308
0.333981
0.689715
0.40941
0.334684
0.688962
0.489414
0.355357
0.69109
0.349087
0.50476
0.710402
0.687416
0.689324
0.489229
0.544782
0.712935
0.693305
0.667471
0.700594
0.523213
0.705474
0.686099
0.715082
0.300145
0.351142
0.453215
0.69733
0.334514
0.715713
0.69376
0.663397
0.693444
0.616045
0.723901
0.703272
0.344391
0.691636
0.685087
0.608067
0.685549
0.700417
0.690789
0.685922
0.352421
0.329704
0.693585
0.588301
0.621167
0.697497
0.693788
0.693036
0.718501
0.717266
0.70561
0.686187
0.715107
0.337541
0.33641
0.346283
0.345832
0.559374
0.462119
0.612257
0.696731
0.703295
0.336341
0.693116
0.707848
0.335186
0.417237
0.560617
0.695805
0.337938
0.311084
0.311931
0.55821
0.69056
0.392854
0.350283
0.349169
0.345456
0.36743
0.356864
0.706065
0.693502
0.69821
0.339976
0.691515
0.683616
0.716689
0.363493
0.348496
0.689218
0.558509
0.354438
0.685716
0.353267
0.719776
0.33601
0.689848
0.341234
0.689451
0.69886
0.336996
0.539922
0.362133
0.713055
0.337068
0.691277
0.335438
0.533954
0.343209
0.678775
0.34607
0.668998
0.673407
0.65126
0.694863
0.36471
0.690992
0.687421
0.698748
0.679442
0.696448
0.34863
0.44307
0.337717
0.718136
0.381275
0.699316
0.530178
0.70314
0.710029
0.552695
0.700226
0.334175
0.340471
0.336852
0.514683
0.643889
0.693635
0.341435
0.347718
0.688921
0.445096
0.330445
0.661786
0.410257
0.354823
0.331138
0.704822
0.739271
0.694735
0.337892
0.690519
0.689283
0.324286
0.413886
0.68971
0.689169
0.674503
0.508272
0.456431
0.424913
0.335724
0.692431
0.684055
0.577326
0.71731
0.344065
0.627827
0.351634
0.615058
0.698495
0.349095
0.371125
0.685675
0.658196
0.698971
0.700843
0.707377
0.695092
0.70054
0.332986
0.341152
0.33484
0.350131
0.633234
0.569869
0.739198
0.350305
0.35061
0.467055
0.327329
0.692887
0.68732
0.354809
0.380837
0.695613
0.337334
0.712309
0.701729
0.688201
0.68858
0.634715
0.354479
0.340799
0.685158
0.349361
0.447689
0.40262
0.685945
0.689547
0.381505
0.350221
0.558043
0.344941
0.686546
0.718637
0.352435
0.330957
0.348444
0.694649
0.344408
0.558052
0.700831
0.670352
0.31868
0.520397
0.697891
0.690849
0.351262
0.69126
0.686667
0.329834
0.696442
0.705438
0.346104
0.355279
0.687943
0.344079
0.349818
0.691346
0.424035
0.692869
0.725862
0.719443
0.69088
0.700161
0.695885
0.69106
0.350957
0.445578
0.688687
0.694684
0.471557
0.712979
0.383895
0.696549
0.689493
0.621512
0.714862
0.442708
0.459146
0.693176
0.699379
0.685724
0.699017
0.694574
0.55894
0.699673
0.558145
0.693756
0.68896
0.693804
0.558875
0.691952
0.327353
0.690362
0.33813
0.687606
0.695244
0.702995
0.686975
0.711953
0.329562
0.335394
0.392873
0.351412
0.688377
0.343509
0.342544
0.702315
0.309028
0.702916
0.336311
0.691089
0.695946
0.352805
0.443799
0.350338
0.697262
0.336
0.693418
0.697607
0.334255
0.689358
0.535589
0.357098
0.339012
0.324153
0.723355
0.355779
0.6894
0.614882
0.364011
0.690104
0.691548
0.709775
0.353278
0.633403
0.332786
0.69166
0.68601
0.691234
0.356803
0.694675
0.697148
0.687306
0.427118
0.696934
0.35417
0.352763
0.689435
0.458179
0.712899
0.431232
0.356013
0.454409
0.687917
0.338052
0.325793
0.329514
0.558243
0.559334
0.696678
0.345202
0.672833
0.694109
0.534822
0.473662
0.34789
0.537322
0.356405
0.351391
0.691646
0.352965
0.353406
0.698636
0.708184
0.333843
0.720684
0.332282
0.559653
0.339943
0.689422
0.651104
0.715121
0.691618
0.335178
0.351993
0.331105
0.686081
0.688207
0.545899
0.581446
0.436928
0.393803
0.691167
0.351112
0.693034
0.432353
0.664633
0.708186
0.339053
0.334616
0.352446
0.350348
0.336192
0.685335
0.68954
0.341362
0.694778
0.714586
0.365021
0.337256
0.710351
0.355369
0.69504
0.453086
0.710135
0.71367
0.694577
0.559113
0.331133
0.716959
0.689444
0.705689
0.354996
0.684264
0.631295
0.352306
0.697768
0.694984
0.70498
0.69025
0.701252
0.689492
0.702234
0.689676
0.691012
0.35073
0.713408
0.352436
0.48031
0.689482
0.331176
0.690007
0.684861
0.347386
0.687445
0.35474
0.329506
0.689412
0.682759
0.707619
0.351339
0.689951
0.737021
0.340001
0.340134
0.690646
0.689232
0.422887
0.33043
0.701227
0.709488
0.356407
0.714472
0.698771
0.737396
0.338038
0.353884
0.328987
0.713496
0.354215
0.69147
0.720177
0.691378
0.685721
0.695335
0.350728
0.689378
0.796101
0.698775
0.67222
0.332631
0.351466
0.34407
0.71901
0.697366
0.452798
0.71437
0.34571
0.696634
0.693925
0.341924
0.68699
0.691635
0.709735
0.339251
0.345146
0.346604
0.697095
0.711302
0.730693
0.508406
0.694728
0.35416
0.72062
0.556821
0.694984
0.338422
0.779701
0.348996
0.686134
0.343204
0.693415
0.689366
0.337898
0.696589
0.509872
0.558259
0.703571
0.558176
0.698269
0.437111
0.691147
0.692232
0.689158
0.693593
0.484962
0.557406
0.347093
0.692624
0.34411
0.347635
0.349578
0.335875
0.355572
0.339757
0.700643
0.428241
0.336461
0.707086
0.696816
0.689694
0.398026
0.704469
0.716883
0.688151
0.33325
0.674136
0.693931
0.346959
0.33221
0.352236
0.715443
0.502531
0.35196
0.673434
0.315379
0.558119
0.499054
0.345869
0.474215
0.715364
0.348138
0.688785
0.341959
0.590377
0.419474
0.69157
0.417829
0.701669
0.557718
0.683048
0.475303
0.351471
0.69339
0.710409
0.332997
0.330643
0.686011
0.348682
0.714076
0.339962
0.536363
0.343292
0.695597
0.340713
0.705623
0.347174
0.690949
0.695052
0.699356
0.560271
0.347109
0.336012
0.394342
0.690818
0.702115
0.687873
0.648504
0.345368
0.700014
0.348176
0.688033
0.681131
0.42509
0.359515
0.701236
0.692764
0.335019
0.604139
0.697146
0.701129
0.719182
0.342901
0.720784
0.353234
0.700845
0.355168
0.691007
0.688641
0.696222
0.704458
0.365531
0.70731
0.352926
0.342059
0.686484
0.560635
0.601209
0.693483
0.558722
0.354746
0.720576
0.690428
0.701894
0.330666
0.442902
0.705472
0.34292
0.696294
0.693134
0.690373
0.692423
0.372698
0.464409
0.719305
0.338208
0.689533
0.711691
0.480943
0.688745
0.376635
0.685696
0.720351
0.726724
0.689288
0.345584
0.333462
0.693902
0.6911
0.343667
0.370209
0.338072
0.337574
0.337596
0.327026
0.340059
0.356625
0.694048
0.343715
0.337413
0.70089
0.601562
0.557923
0.427126
0.35048
0.694585
0.474133
0.573248
0.704668
0.413873
0.728074
0.678461
0.669934
0.691486
0.335284
0.696687
0.685144
0.332004
0.352725
0.428257
0.68409
0.67355
0.701589
0.686175
0.695218
0.692208
0.36783
0.696116
0.685857
0.691905
0.35178
0.696005
0.677054
0.36473
0.445348
0.348112
0.332916
0.340242
0.641723
0.71013
0.694365
0.351628
0.449364
0.698846
0.323159
0.698546
0.692373
0.690486
0.727667
0.694619
0.34539
0.332961
0.296685
0.632926
0.352594
0.693486
0.298716
0.687614
0.685859
0.694794
0.34415
0.461436
0.434521
0.694995
0.328587
0.35222
0.689357
0.691359
0.692281
0.686131
0.691022
0.711254
0.356143
0.776651
0.70035
0.518348
0.69475
0.6991
0.704176
0.470688
0.450189
0.702586
0.49717
0.69451
0.3539
0.68895
0.690299
0.391096
0.354207
0.692198
0.50605
0.699902
0.698737
0.356241
0.347608
0.562713
0.472434
0.406393
0.689834
0.690565
0.351617
0.690707
0.562592
0.68708
0.357018
0.641658
0.355007
0.689513
0.698187
0.708051
0.694521
0.573094
0.379595
0.384511
0.696198
0.349266
0.701552
0.360524
0.69476
0.343035
0.70983
0.700493
0.561077
0.356871
0.558076
0.56021
0.351302
0.689117
0.322215
0.705354
0.355477
0.340418
0.336425
0.698692
0.690317
0.410877
0.389434
0.689625
0.699546