# vtk DataFile Version 1.0
unstructured grid
ascii
DATASET UNSTRUCTURED_GRID
points 13672 float
0.0796578 -0.059106 0
0.00128732 0.00159165 0
0.00227961 -0.00102548 0
0.0791586 -0.0598787 0
-0.0546216 0.01 0
0.000495206 0.025 0
0.0800549 -0.035 0
0.135172 -0.08 0
-0.0546216 -0.0451168 0
0.000495206 -0.0301168 0
0.0800549 -0.0901168 0
0.135172 -0.135117 0
-0.0546216 -0.0451168 -0.00551168
0.000495206 -0.0301168 -0.00551168
0.0800549 -0.0901168 -0.00551168
0.135172 -0.135117 -0.00551168
0.135172 -0.08 -0.00551168
0.0800549 -0.035 -0.00551168
0.000495206 0.025 -0.00551168
-0.0546216 0.01 -0.00551168
0.00128732 0.00159165 -0.00551168
0.00227961 -0.00102548 -0.00551168
0.0791586 -0.0598787 -0.00551168
0.0796578 -0.059106 -0.00551168
0.00165953 -0.000990923 0
0.00119576 -0.000874076 0
0.000866021 -0.000641801 0
0.000645147 -0.000349912 0
0.00052235 -1.7281e-05 0
0.00049972 0.000348016 0
0.000601632 0.000737716 0
0.000861774 0.0011403 0
0.00157235 0.00183217 0
0.00188647 0.00206725 0
0.00222612 0.00230203 0
0.00258713 0.00254351 0
0.00296826 0.00279524 0
0.00337118 0.00305664 0
0.00379785 0.00332658 0
0.00425045 0.00360349 0
0.00473139 0.00388521 0
0.0052432 0.00416895 0
0.0057881 0.00445204 0
0.00636753 0.00473281 0
0.00698281 0.00500961 0
0.00763526 0.00528058 0
0.00832616 0.00554366 0
0.00905691 0.00579603 0
0.00982918 0.00603333 0
0.0106445 0.00625033 0
0.0115038 0.00644128 0
0.0124073 0.00660297 0
0.0133543 0.00673414 0
0.0143444 0.00683382 0
0.0153769 0.00690031 0
0.0164512 0.00693173 0
0.0175666 0.00692547 0
0.0187219 0.00687822 0
0.0199156 0.00678477 0
0.0211454 0.00663864 0
0.0224084 0.00643275 0
0.0237018 0.00616676 0
0.0250249 0.00584739 0
0.026375 0.00547298 0
0.0277479 0.00503752 0
0.0291386 0.00453545 0
0.0305433 0.0039653 0
0.0319572 0.0033256 0
0.0333681 0.00260019 0
0.034775 0.00179799 0
0.0361793 0.000930615 0
0.0375798 3.12222e-06 0
0.0389689 -0.000988429 0
0.0403357 -0.00205109 0
0.041675 -0.00318283 0
0.0429849 -0.00437751 0
0.0442643 -0.00562904 0
0.0455126 -0.00693089 0
0.0467314 -0.00827518 0
0.0479204 -0.00965638 0
0.0490661 -0.0110799 0
0.0501515 -0.0125519 0
0.0511696 -0.0140695 0
0.0521492 -0.0156071 0
0.0531202 -0.0171411 0
0.0540851 -0.0186663 0
0.0550431 -0.0201798 0
0.0559923 -0.0216793 0
0.0569311 -0.0231626 0
0.0578582 -0.0246273 0
0.0587723 -0.0260715 0
0.0596721 -0.027493 0
0.0605563 -0.02889 0
0.0614241 -0.0302609 0
0.0622742 -0.0316042 0
0.063106 -0.0329183 0
0.0639186 -0.034202 0
0.0647113 -0.0354543 0
0.0654835 -0.0366743 0
0.0662345 -0.0378613 0
0.0669642 -0.0390145 0
0.0676726 -0.0401333 0
0.0683597 -0.0412172 0
0.0690246 -0.0422665 0
0.0696662 -0.0432819 0
0.0702841 -0.0442636 0
0.0708793 -0.0452111 0
0.0714538 -0.0461237 0
0.072009 -0.047001 0
0.0725452 -0.0478434 0
0.0730611 -0.0486524 0
0.073556 -0.0494294 0
0.0740291 -0.0501756 0
0.0744812 -0.0508916 0
0.0749138 -0.0515773 0
0.0753285 -0.0522331 0
0.0757266 -0.0528592 0
0.076109 -0.0534564 0
0.0764753 -0.0540264 0
0.0768243 -0.054571 0
0.0771553 -0.0550919 0
0.0774679 -0.0555901 0
0.0777617 -0.0560669 0
0.0780369 -0.056523 0
0.0782958 -0.0569578 0
0.0785421 -0.0573703 0
0.0787786 -0.0577603 0
0.0790073 -0.0581279 0
0.0792295 -0.058474 0
0.0794462 -0.0587995 0
0.0798803 -0.0594162 0
0.0800272 -0.0596588 0
0.0800357 -0.0598891 0
0.0799275 -0.0600784 0
0.0797205 -0.0601773 0
0.0794593 -0.0601051 0
0.0789155 -0.0596491 0
0.0786707 -0.0593963 0
0.0784111 -0.0591319 0
0.0781372 -0.0588542 0
0.0778566 -0.0585548 0
0.0775715 -0.0582308 0
0.0772803 -0.0578828 0
0.0769832 -0.0575099 0
0.0766822 -0.0571097 0
0.0763801 -0.0566796 0
0.0760759 -0.0562196 0
0.0757623 -0.0557337 0
0.0754359 -0.0552232 0
0.0750951 -0.0546879 0
0.0747379 -0.054128 0
0.0743626 -0.0535435 0
0.0739688 -0.0529338 0
0.0735559 -0.0522981 0
0.0731238 -0.0516357 0
0.0726718 -0.050946 0
0.0721991 -0.0502288 0
0.0717046 -0.049484 0
0.0711872 -0.0487117 0
0.0706461 -0.047912 0
0.0700804 -0.0470849 0
0.0694892 -0.0462308 0
0.0688718 -0.0453499 0
0.0682271 -0.0444431 0
0.0675544 -0.043511 0
0.0668527 -0.0425546 0
0.0661215 -0.0415748 0
0.06536 -0.040573 0
0.0645676 -0.0395504 0
0.0637439 -0.0385087 0
0.0628887 -0.0374493 0
0.062002 -0.0363741 0
0.0610838 -0.0352847 0
0.0601345 -0.0341831 0
0.0591547 -0.033071 0
0.0581456 -0.0319502 0
0.0571083 -0.0308224 0
0.0560444 -0.0296893 0
0.0549562 -0.028552 0
0.053845 -0.0274126 0
0.0527113 -0.0262746 0
0.051554 -0.0251427 0
0.0503724 -0.0240222 0
0.0491675 -0.0229164 0
0.047941 -0.0218282 0
0.0466955 -0.0207597 0
0.0454337 -0.0197126 0
0.0441592 -0.0186878 0
0.0428751 -0.0176863 0
0.0415841 -0.0167097 0
0.0402878 -0.0157609 0
0.0389879 -0.0148428 0
0.0376864 -0.0139575 0
0.0363853 -0.013107 0
0.0350871 -0.0122931 0
0.0337942 -0.0115164 0
0.0325095 -0.0107772 0
0.0312357 -0.0100756 0
0.0299758 -0.00941024 0
0.0287337 -0.00877784 0
0.0275126 -0.00817571 0
0.0263139 -0.00760375 0
0.0251376 -0.00706528 0
0.0239829 -0.0065649 0
0.0228537 -0.00609619 0
0.0217522 -0.00565563 0
0.0206795 -0.00524226 0
0.0196364 -0.00485507 0
0.0186233 -0.00449318 0
0.0176408 -0.00415577 0
0.016689 -0.00384204 0
0.0157682 -0.00355115 0
0.0148783 -0.00328218 0
0.0140192 -0.00303468 0
0.0131906 -0.00280795 0
0.0123925 -0.00260016 0
0.0116246 -0.00241012 0
0.0108864 -0.00223769 0
0.0101774 -0.00208212 0
0.00949701 -0.00194206 0
0.00884483 -0.0018163 0
0.0082202 -0.0017039 0
0.00762247 -0.00160391 0
0.00705097 -0.00151528 0
0.006505 -0.00143697 0
0.0059838 -0.00136806 0
0.00548662 -0.00130772 0
0.00501265 -0.00125519 0
0.00456114 -0.00120954 0
0.00413136 -0.00116914 0
0.00372257 -0.00113251 0
0.00333398 -0.00109853 0
0.00296466 -0.00106798 0
0.00261363 -0.0010431 0
-0.052721 -0.0445996 0
-0.0508204 -0.0440823 0
-0.0489199 -0.0435651 0
-0.0470193 -0.0430478 0
-0.0451187 -0.0425306 0
-0.0432181 -0.0420134 0
-0.0413175 -0.0414961 0
-0.039417 -0.0409789 0
-0.0375164 -0.0404616 0
-0.0356158 -0.0399444 0
-0.0337152 -0.0394271 0
-0.0318146 -0.0389099 0
-0.0299141 -0.0383927 0
-0.0280135 -0.0378754 0
-0.0261129 -0.0373582 0
-0.0242123 -0.0368409 0
-0.0223117 -0.0363237 0
-0.0204112 -0.0358065 0
-0.0185106 -0.0352892 0
-0.01661 -0.034772 0
-0.0147094 -0.0342547 0
-0.0128088 -0.0337375 0
-0.0109083 -0.0332202 0
-0.00900769 -0.032703 0
-0.00710711 -0.0321858 0
-0.00520653 -0.0316685 0
-0.00330595 -0.0311513 0
-0.00140537 -0.030634 0
0.00190689 -0.0299614 0
0.00332271 -0.0298498 0
0.00474133 -0.0297825 0
0.00616136 -0.0297597 0
0.0075814 -0.0297814 0
0.00900007 -0.0298477 0
0.010416 -0.0299583 0
0.0118278 -0.0301127 0
0.0132342 -0.0303103 0
0.0146339 -0.0305504 0
0.0160259 -0.0308322 0
0.0174091 -0.0311546 0
0.0187824 -0.0315166 0
0.020145 -0.031917 0
0.0214961 -0.0323546 0
0.0228351 -0.032828 0
0.0241613 -0.0333361 0
0.0254744 -0.0338774 0
0.0267738 -0.0344507 0
0.0280592 -0.0350545 0
0.0293306 -0.0356877 0
0.0305875 -0.0363488 0
0.0318301 -0.0370367 0
0.0330581 -0.0377501 0
0.0342717 -0.0384879 0
0.0354708 -0.0392489 0
0.0366556 -0.0400321 0
0.0378262 -0.0408363 0
0.0389828 -0.0416607 0
0.0401254 -0.0425042 0
0.0412543 -0.0433659 0
0.0423698 -0.0442451 0
0.043472 -0.0451408 0
0.0445612 -0.0460523 0
0.0456375 -0.0469789 0
0.0467013 -0.0479199 0
0.0477529 -0.0488746 0
0.0487923 -0.0498424 0
0.04982 -0.0508227 0
0.0508362 -0.051815 0
0.051841 -0.0528187 0
0.0528348 -0.0538333 0
0.0538178 -0.0548584 0
0.0547903 -0.0558935 0
0.0557524 -0.0569382 0
0.0567045 -0.0579922 0
0.0576467 -0.0590549 0
0.0585792 -0.0601261 0
0.0595024 -0.0612055 0
0.0604163 -0.0622926 0
0.0613212 -0.0633873 0
0.0622174 -0.0644891 0
0.0631049 -0.0655979 0
0.0639841 -0.0667134 0
0.064855 -0.0678353 0
0.0657179 -0.0689633 0
0.0665729 -0.0700974 0
0.0674202 -0.0712372 0
0.06826 -0.0723826 0
0.0690925 -0.0735333 0
0.0699178 -0.0746892 0
0.070736 -0.0758501 0
0.0715473 -0.0770159 0
0.0723518 -0.0781863 0
0.0731498 -0.0793612 0
0.0739412 -0.0805405 0
0.0747264 -0.081724 0
0.0755053 -0.0829116 0
0.0762781 -0.0841033 0
0.0770449 -0.0852987 0
0.0778059 -0.0864979 0
0.0785611 -0.0877007 0
0.0793108 -0.088907 0
0.0814681 -0.0912706 0
0.0828814 -0.0924245 0
0.0842946 -0.0935783 0
0.0857079 -0.0947322 0
0.0871211 -0.095886 0
0.0885344 -0.0970399 0
0.0899476 -0.0981937 0
0.0913609 -0.0993476 0
0.0927741 -0.100501 0
0.0941874 -0.101655 0
0.0956006 -0.102809 0
0.0970139 -0.103963 0
0.0984272 -0.105117 0
0.0998404 -0.106271 0
0.101254 -0.107424 0
0.102667 -0.108578 0
0.10408 -0.109732 0
0.105493 -0.110886 0
0.106907 -0.11204 0
0.10832 -0.113194 0
0.109733 -0.114348 0
0.111146 -0.115501 0
0.11256 -0.116655 0
0.113973 -0.117809 0
0.115386 -0.118963 0
0.116799 -0.120117 0
0.118213 -0.121271 0
0.119626 -0.122424 0
0.121039 -0.123578 0
0.122452 -0.124732 0
0.123866 -0.125886 0
0.125279 -0.12704 0
0.126692 -0.128194 0
0.128105 -0.129348 0
0.129519 -0.130501 0
0.130932 -0.131655 0
0.132345 -0.132809 0
0.133758 -0.133963 0
0.135172 -0.133216 0
0.135172 -0.131316 0
0.135172 -0.129415 0
0.135172 -0.127514 0
0.135172 -0.125614 0
0.135172 -0.123713 0
0.135172 -0.121813 0
0.135172 -0.119912 0
0.135172 -0.118012 0
0.135172 -0.116111 0
0.135172 -0.11421 0
0.135172 -0.11231 0
0.135172 -0.110409 0
0.135172 -0.108509 0
0.135172 -0.106608 0
0.135172 -0.104708 0
0.135172 -0.102807 0
0.135172 -0.100906 0
0.135172 -0.0990058 0
0.135172 -0.0971052 0
0.135172 -0.0952046 0
0.135172 -0.0933041 0
0.135172 -0.0914035 0
0.135172 -0.0895029 0
0.135172 -0.0876023 0
0.135172 -0.0857017 0
0.135172 -0.0838012 0
0.135172 -0.0819006 0
0.133758 -0.0788462 0
0.132345 -0.0776923 0
0.130932 -0.0765385 0
0.129519 -0.0753846 0
0.128105 -0.0742308 0
0.126692 -0.0730769 0
0.125279 -0.0719231 0
0.123866 -0.0707692 0
0.122452 -0.0696154 0
0.121039 -0.0684615 0
0.119626 -0.0673077 0
0.118213 -0.0661538 0
0.116799 -0.065 0
0.115386 -0.0638462 0
0.113973 -0.0626923 0
0.11256 -0.0615385 0
0.111146 -0.0603846 0
0.109733 -0.0592308 0
0.10832 -0.0580769 0
0.106907 -0.0569231 0
0.105493 -0.0557692 0
0.10408 -0.0546154 0
0.102667 -0.0534615 0
0.101254 -0.0523077 0
0.0998404 -0.0511538 0
0.0984272 -0.05 0
0.0970139 -0.0488462 0
0.0956006 -0.0476923 0
[...]
CELL_DATA 13116
SCALARS rho float
LOOKUP_TABLE default
0.5977
0.5977
0.5977
0.5977
0.5977
0.680087
0.497738
0.5977
0.5977
0.5977
0.44062
0.5977
0.5977
0.597735
0.597698
0.680102
0.5977
0.5977
0.658529
0.423715
0.5977
0.5977
0.5977
0.5977
0.5977
0.5977
0.5977
0.5977
0.5977
0.5977
0.680519
0.5977
0.5977
0.5977
0.512966
0.5977
0.5977
0.597701
0.679859
0.597685
0.679928
0.5977
0.5977
0.597697
0.593045
0.628227
0.5977
0.590599
0.5977
0.5977
0.5977
0.5977
0.563502
0.5977
0.5977
0.5977
0.597697
0.5977
0.5977
0.597699
0.597732
0.5977
0.5977
0.679815
0.680407
0.59436
0.677938
0.5977
0.640488
0.680651
0.597698
0.5977
0.5977
0.59772
0.680467
0.597331
0.5977
0.5977
0.453589
0.5977
0.5977
0.5977
0.5977
0.597702
0.5977
0.5977
0.528078
0.5977
0.5977
0.358238
0.5977
0.5977
0.5977
0.5977
0.5977
0.5977
0.5977
0.680607
0.680464
0.5977
0.5977
0.5977
0.679878
0.5977
0.5977
0.5977
0.5977
0.5977
0.5977
0.5977
0.5977
0.5977
0.5977
0.5977
0.5977
0.674671
0.573985
0.5977
0.5977
0.595176
0.5977
0.5977
0.611236
0.5977
0.5977
0.5977
0.541401
0.5977
0.5977
0.5977
0.5977
0.5977
0.5977
0.5977
0.5977
0.5977
0.55111
0.597469
0.5977
0.594416
0.5977
0.5977
0.5977
0.5977
0.5977
0.597698
0.506785
0.5977
0.5977
0.5977
0.5977
0.597661
0.597038
0.536942
0.5977
0.5977
0.5977
0.5977
0.680492
0.5977
0.5977
0.442231
0.5977
0.5977
0.5977
0.5977
0.5977
0.5977
0.507109
0.5977
0.5977
0.548777
0.597702
0.5977
0.677563
0.5977
0.597699
0.5977
0.5977
0.680381
0.392123
0.5977
0.5977
0.5977
0.680566
0.5977
0.536144
0.679873
0.5977
0.5977
0.5977
0.5977
0.680825
0.5977
0.5977
0.680138
0.5977
0.680042
0.5977
0.5977
0.5977
0.5977
0.5977
0.597707
0.5977
0.5977
0.5977
0.5977
0.597696
0.400411
0.596103
0.680185
0.5977
0.362206
0.359065
0.547789
0.5977
0.680908
0.5977
0.5977
0.597697
0.679353
0.5977
0.388365
0.5977
0.5977
0.5977
0.5977
0.678825
0.5977
0.5977
0.5977
0.679991
0.5977
0.680462
0.597701
0.680936
0.5977
0.5977
0.5977
0.679902
0.680333
0.562907
0.680392
0.5977
0.5977
0.597701
0.5977
0.680708
0.473991
0.5977
0.597702
0.5977
0.680142
0.5977
0.5977
0.5977
0.432936
0.5977
0.5977
0.597696
0.5977
0.5977
0.5977
0.488109
0.59399
0.565251
0.5977
0.5977
0.472359
0.5977
0.5977
0.676046
0.5977
0.5977
0.666323
0.5977
0.680778
0.597208
0.436639
0.509581
0.5977
0.5977
0.5977
0.5977
0.5977
0.5977
0.5977
0.58032
0.5977
0.5977
0.5112
0.415426
0.554485
0.5977
0.5977
0.5977
0.5977
0.5977
0.463476
0.680279
0.5977
0.5977
0.597699
0.680419
0.5977
0.679714
0.547128
0.680069
0.5977
0.5977
0.5977
0.5977
0.5977
0.5977
0.680626
0.597733
0.679898
0.5977
0.5977
0.367221
0.5977
0.5977
0.555147
0.5977
0.5977
0.5977
0.5977
0.5977
0.530573
0.595609
0.5977
0.597735
0.5977
0.5977
0.5977
0.5977
0.5977
0.5977
0.487378
0.5977
0.5977
0.680678
0.5977
0.5977
0.5977
0.5977
0.5977
0.528889
0.5977
0.5977
0.5977
0.554073
0.529887
0.5977
0.5977
0.5977
0.5977
0.522018
0.5977
0.597701
0.5977
0.493855
0.5977
0.594622
0.5977
0.629181
0.5977
0.5977
0.358202
0.597692
0.680092
0.680068
0.597654
0.5977
0.5977
0.5977
0.597704
0.393011
0.680125
0.386886
0.5977
0.5977
0.5977
0.5977
0.5977
0.5977
0.517752
0.5977
0.5977
0.5977
0.5977
0.6748
0.5977
0.5977
0.5977
0.502641
0.5977
0.5977
0.5977
0.5977
0.67959
0.5977
0.5977
0.5977
0.5977
0.5977
0.5977
0.5977
0.5977
0.679867
0.5977
0.5977
0.5977
0.5977
0.5977
0.5977
0.558638
0.678507
0.677674
0.5977
0.397017
0.36033
0.515435
0.5977
0.592608
0.5977
0.679458
0.593272
0.5977
0.358037
0.680273
0.5977
0.5977
0.5977
0.5977
0.5977
0.358282
0.514308
0.358346
0.5977
0.504057
0.389564
0.5977
0.5977
0.387843
0.5977
0.5977
0.5977
0.5977
0.5977
0.5977
0.597695
0.357981
0.597695
0.594084
0.5977
0.5977
0.5977
0.586646
0.5977
0.5977
0.5977
0.5977
0.5977
0.5977
0.500499
0.680483
0.5977
0.5977
0.680607
0.5977
0.575539
0.5977
0.5977
0.5977
0.5977
0.5977
0.5977
0.5977
0.415961
0.597697
0.597726
0.5977
0.597698
0.595999
0.597703
0.597734
0.5977
0.5977
0.5977
0.5977
0.5977
0.5977
0.5977
0.583868
0.5977
0.5977
0.5977
0.5977
0.5977
0.5977
0.592396
0.5977
0.5977
0.5977
0.566136
0.5977
0.5977
0.680433
0.5977
0.5977
0.5977
0.376804
0.5977
0.5977
0.5977
0.5977
0.5977
0.5977
0.5977
0.5977
0.5977
0.5977
0.5977
0.5977
0.5977
0.67866
0.360885
0.593664
0.5977
0.597699
0.358352
0.5977
0.597702
0.5977
0.5977
0.5977
0.363108
0.680427
0.597701
0.5977
0.5977
0.575382
0.5977
0.358191
0.358058
0.597698
0.370905
0.5977
0.597684
0.5977
0.5977
0.5977
0.5977
0.678048
0.5977
0.358153
0.393888
0.5977
0.5977
0.5977
0.5977
0.5977
0.5977
0.519948
0.5977
0.680367
0.5977
0.359429
0.5977
0.5977
0.5977
0.680682
0.5977
0.5977
0.5977
0.5977
0.5977
0.5977
0.5977
0.5977
0.5977
0.678639
0.5977
0.5977
0.5977
0.5977
0.585745
0.574813
0.597698
0.680145
0.5977
0.358277
0.5977
0.5977
0.68033
0.5977
0.483515
0.5977
0.680477
0.5977
0.475254
0.5977
0.358693
0.680731
0.5977
0.680294
0.597704
0.5977
0.5977
0.5977
0.5977
0.5977
0.5977
0.5977
0.5977
0.56789
0.597408
0.680213
0.596829
0.679686
0.5977
0.68021
0.358637
0.5977
0.5977
0.5977
0.680259
0.5977
0.65966
0.5977
0.680649
0.5977
0.5977
0.441028
0.5977
0.5977
0.524397
0.679495
0.5977
0.542472
0.5977
0.5977
0.597704
0.679703
0.594205
0.5977
0.597695
0.462898
0.5977
0.5977
0.5977
0.577574
0.436033
0.5977
0.596136
0.5977
0.5977
0.680435
0.435211
0.5977
0.5977
0.5977
0.5977
0.5977
0.5977
0.680533
0.5977
0.5977
0.5977
0.5977
0.678629
0.5977
0.5977
0.5977
0.5977
0.5977
0.5977
0.5977
0.5977
0.5977
0.5977
0.679722
0.5977
0.5977
0.596672
0.5977
0.5977
0.5977
0.5977
0.5977
0.597719
0.680459
0.5977
0.5977
0.680233
0.5977
0.5977
0.5977
0.5977
0.5977
0.5977
0.5977
0.5977
0.597725
0.558399
0.5977
0.592733
0.5977
0.363043
0.5977
0.5977
0.5977
0.5977
0.5977
0.394967
0.5977
0.5977
0.415083
0.5977
0.5977
0.597696
0.5977
0.5977
0.5977
0.5977
0.5977
0.5977
0.680152
0.5977
0.362076
0.5977
0.5977
0.5977
0.59736
0.680481
0.5977
0.5977
0.403852
0.5977
0.5977
0.5977
0.5977
0.680165
0.5977
0.5977
0.5977
0.5977
0.5977
0.35804
0.358188
0.483253
0.383923
0.5977
0.5977
0.680451
0.5977
0.401909
0.649073
0.5977
0.59773
0.5977
0.5977
0.5977
0.680327
0.597701
0.5977
0.392087
0.357981
0.596139
0.5977
0.363145
0.577232
0.67988
0.5977
0.358168
0.5977
0.5977
0.5977
0.680473
0.680474
0.578367
0.597728
0.47055
0.5977
0.5977
0.5977
0.5977
0.5977
0.5977
0.679385
0.5977
0.35818
0.5977
0.357906
0.680453
0.5977
0.680494
0.5977
0.35838
0.5977
0.680453
0.5977
0.597729
0.5977
0.680414
0.5977
0.5977
0.5977
0.640931
0.5977
0.389217
0.680576
0.680204
0.5977
0.5977
0.556624
0.5977
0.65069
0.595303
0.596458
0.597712
0.358151
0.680413
0.5977
0.35799
0.5977
0.5977
0.5977
0.5977
0.5977
0.5977
0.5977
0.5977
0.5977
0.5977
0.358608
0.5977
0.680171
0.597698
0.5977
0.597674
0.5977
0.5977
0.5977
0.5977
0.679134
0.496181
0.5977
0.597696
0.5977
0.679918
0.360605
0.5977
0.5977
0.5977
0.5977
0.635222
0.5977
0.597706
0.597713
0.5977
0.5977
0.5977
0.5977
0.5977
0.680294
0.5977
0.5977
0.5977
0.5977
0.5977
0.669404
0.5977
0.358204
0.5977
0.5977
0.5977
0.5977
0.679848
0.5977
0.5977
0.5977
0.5977
0.5977
0.588948
0.680277
0.5977
0.5977
0.680474
0.5977
0.5977
0.5977
0.5977
0.597698
0.597669
0.5977
0.5977
0.5977
0.597696
0.5977
0.549068
0.554162
0.439506
0.5977
0.5977
0.5977
0.5977
0.5977
0.597708
0.5977
0.680025
0.680141
0.5977
0.680735
0.5977
0.5977
0.5977
0.5977
0.597712
0.680412
0.678174
0.5977
0.676034
0.5977
0.5977
0.5977
0.597699
0.5977
0.358167
0.671197
0.470466
0.5977
0.580988
0.5977
0.5977
0.5977
0.5977
0.5977
0.5977
0.5977
0.680928
0.40925
0.5977
0.5977
0.5977
0.5977
0.680585
0.5977
0.680565
0.5977
0.5977
0.5977
0.657952
0.5977
0.358185
0.5977
0.597702
0.571913
0.679086
0.561491
0.5977
0.5977
0.5977
0.596633
0.358131
0.597702
0.565538
0.5977
0.68068
0.597251
0.680145
0.5977
0.5977
0.597721
0.5977
0.5977
0.5977
0.5977
0.5977
0.678271
0.679123
0.491655
0.5977
0.5977
0.495538
0.5977
0.59773
0.5977
0.5977
0.35976
0.597302
0.5977
0.5977
0.5977
0.51293
0.512175
0.5977
0.597707
0.593267
0.680481
0.5977
0.5977
0.5977
0.5977
0.5977
0.399036
0.5977
0.450157
0.5977
0.5977
0.5977
0.595434
0.5977
0.5977
0.59305
0.5977
0.5977
0.5977
0.680013
0.5977
0.5977
0.597249
0.436197
0.5977
0.679976
0.5977
0.5977
0.5977
0.680318
0.5977
0.5977
0.630095
0.5977
0.5977
0.485414
0.5977
0.5977
0.597702
0.5977
0.5977
0.680213
0.5977
0.5977
0.359403
0.5977
0.5977
0.58609
0.5977
0.555037
0.5977
0.525627
0.679572
0.383455
0.5977
0.5977
0.358922
0.5977
0.597697
0.5977
0.679957
0.5977
0.5977
0.5977
0.5977
0.5977
0.5977
0.358756
0.569163
0.484947
0.597699
0.5977
0.5977
0.5977
0.5977
0.680663
0.5977
0.59773
0.5977
0.5977
0.680025
0.45657
0.680074
0.5977
0.5977
0.597701
0.597698
0.5977
0.5977
0.5977
0.5977
0.679697
0.5977
0.5977
0.59705
0.5977
0.358403
0.680162
0.5977
0.5977
0.5977
0.5977
0.5977
0.5977
0.5977
0.5977
0.486269
0.5977
0.5977
0.5977
0.597701
0.5977
0.5977
0.5977
0.597699
0.5977
0.5977
0.68054
0.5977
0.474529
0.5977
0.5977
0.5977
0.5977
0.5977
0.5977
0.5977
0.593493
0.5977
0.680443
0.5977
0.5977
0.5977
0.597702
0.5977
0.5977
0.5977
0.5977
0.680087
0.5977
0.5977
0.558397
0.5977
0.533027
0.5977
0.5977
0.679688
0.5977
0.5977
0.597721
0.5977
0.59771
0.680442
0.5977
0.5977
0.5977
0.406814
0.5977
0.5977
0.5977
0.5977
0.5977
0.680431
0.5977
0.5977
0.5977
0.5977
0.680311
0.667262
0.5977
0.597698
0.5977
0.5977
0.5977
0.5977
0.5977
0.5977
0.5977
0.680179
0.5977
0.5977
0.5977
0.5977
0.680237
0.67989
0.5977
0.5977
0.680754
0.5977
0.5977
0.493499
0.5977
0.511147
0.5977
0.5977
0.357958
0.358201
0.597717
0.679687
0.5977
0.5977
0.678195
0.5977
0.5977
0.375829
0.5977
0.5977
0.680389
0.596728
0.5977
0.680127
0.5977
0.680425
0.680023
0.5977
0.5977
0.5977
0.5977
0.5977
0.5977
0.5977
0.5977
0.410122
0.5977
0.5977
0.679225
0.596817
0.5977
0.5977
0.679808
0.407806
0.59683
0.5977
0.555722
0.5977
0.680211
0.382139
0.5977
0.374675
0.5977
0.5977
0.5977
0.5977
0.5977
0.5977
0.523153
0.458472
0.5977
0.680064
0.5977
0.5977
0.593044
0.52423
0.5977
0.5977
0.5977
0.5977
0.5977
0.5977
0.595774
0.5977
0.5977
0.5977
0.5977
0.5977
0.400754
0.680294
0.680436
0.597729
0.5977
0.5977
0.5977
0.5977
0.5977
0.5977
0.5977
0.5977
0.5977
0.364578
0.680501
0.5977
0.358656
0.5977
0.587959
0.60409
0.5977
0.5977
0.597703
0.5977
0.5977
0.5977
0.5977
0.59375
0.5977
0.680341
0.674112
0.5977
0.5977
0.5977
0.679962
0.5977
0.6619
0.5977
0.5977
0.5977
0.597718
0.5977
0.679544
0.680519
0.5977
0.680233
0.5977
0.680404
0.579029
0.592976
0.35814
0.597703
0.481815
0.596663
0.5977
0.5977
0.594108
0.5977
0.5977
0.5977
0.358078
0.680372
0.68059
0.596342
0.53706
0.597703
0.5977
0.680664
0.5977
0.5977
0.515799
0.40948
0.679867
0.408296
0.5977
0.5977
0.609876
0.358597
0.5977
0.533059
0.5977
0.555246
0.5977
0.597701
0.679342
0.5977
0.38045
0.597697
0.5977
0.5977
0.358338
0.558262
0.5977
0.680522
0.597704
0.431464
0.5977
0.5977
0.5977
0.5977
0.5977
0.5977
0.5977
0.5977
0.5977
0.5977
0.46642
0.5977
0.597375
0.5977
0.5977
0.680722
0.358665
0.5977
0.5977
0.597702
0.680143
0.401048
0.597576
0.5977
0.5977
0.5977
0.5977
0.394992
0.5977
0.679388
0.680224
0.5977
0.5977
0.5977
0.5977
0.5977
0.680146
0.680417
0.5977
0.5977
0.680698
0.5977
0.5977
0.5977
0.597516
0.5977
0.680748
0.597701
0.679808
0.5977
0.363367
0.5977
0.5977
0.358183
0.5977
0.597688
0.597727
0.5977
0.667323
0.5977
0.5977
0.5977
0.597701
0.5977
0.597731
0.681006
0.5977
0.680034
0.557059
0.5977
0.679109
0.5977
0.680069
0.5977
0.680046
0.5977
0.5977
0.5977
0.5977
0.431415
0.5977
0.595548
0.360555
0.5977
0.5977
0.5977
0.5977
0.680692
0.5977
0.6799
0.5977
0.597716
0.5977
0.5977
0.358251
0.680071
0.5977
0.5977
0.5977
0.5977
0.5977
0.5977
0.5977
0.5977
0.680781
0.5977
0.5977
0.5977
0.5977
0.5977
0.5977
0.5977
0.449479
0.5977
0.597701
0.5977
0.5977
0.597575
0.5977
0.680787
0.5977
0.5977
0.5977
0.458686
0.59575
0.5977
0.5977
0.5977
0.5977
0.5977
0.680461
0.380218
0.597731
0.5977
0.5977
0.5977
0.595278
0.597701
0.676309
0.5977
0.5977
0.5977
0.5977
0.5977
0.59773
0.5977
0.597639
0.5977
0.672551
0.5977
0.5977
0.5977
0.5977
0.5977
0.5977
0.5977
0.56953
0.5977
0.678065
0.597661
0.5977
0.5977
0.597698
0.558192
0.5977
0.5977
0.530863
0.370725
0.5977
0.5977
0.35815
0.5977
0.594218
0.5977
0.472704
0.5977
0.5977
0.5977
0.5977
0.411793
0.5977
0.563095
0.358021
0.680261
0.358455
0.5977
0.5977
0.5972
0.478394
0.5977
0.5977
0.52287
0.5977
0.5977
0.5977
0.5977
0.5977
0.5977
0.5977
0.511058
0.5977
0.40157
0.680123
0.680387
0.5977
0.5977
0.5977
0.5977
0.680234
0.5977
0.5977
0.5977
0.404918
0.5977
0.597464
0.5977
0.5977
0.5977
0.5977
0.5977
0.5977
0.5977
0.5977
0.597713
0.597735
0.597725
0.5977
0.5977
0.5977
0.456788
0.5977
0.680232
0.5977
0.5977
0.5977
0.5977
0.358045
0.5977
0.5977
0.5977
0.5977
0.597697
0.5977
0.680035
0.5977
0.5977
0.5977
0.680842
0.5977
0.5977
0.5977
0.5977
0.526154
0.5977
0.5977
0.5977
0.5977
0.597698
0.5977
0.4168
0.679968
0.5977
0.388667
0.5977
0.5977
0.5977
0.5977
0.5977
0.5977
0.597702
0.5977
0.562617
0.5977
0.597693
0.431209
0.5977
0.680087
0.5977
0.404411
0.358731
0.5977
0.5977
0.675156
0.5977
0.359202
0.5977
0.674186
0.5977
0.5977
0.5977
0.5977
0.680607
0.5977
0.35821
0.500278
0.5977
0.381424
0.5977
0.5977
0.680565
0.633229
0.5977
0.362818
0.56
0.411997
0.680614
0.5977
0.358542
0.597695
0.574697
0.657719
0.58081
0.55707
0.5977
0.5977
0.5977
0.5977
0.5977
0.5977
0.480413
0.5977
0.5977
0.5977
0.5977
0.5977
0.466246
0.358005
0.5977
0.430257
0.43225
0.5977
0.5977
0.595535
0.5977
0.5977
0.5977
0.5977
0.677988
0.680087
0.46548
0.5977
0.5977
0.5977
0.5977
0.5977
0.5977
0.592597
0.5977
0.5977
0.5977
0.5977
0.5977
0.5977
0.5977
0.5977
0.5977
0.680371
0.64581
0.5977
0.555705
0.5977
0.5977
0.5977
0.561641
0.680271
0.5977
0.5977
0.5977
0.599881
0.597149
0.5977
0.5977
0.5977
0.597702
0.530799
0.5977
0.469408
0.5977
0.458496
0.466485
0.5977
0.5977
0.5977
0.517074
0.5977
0.5977
0.358096
0.5977
0.5977
0.597702
0.597696
0.597701
0.5977
0.548081
0.5977
0.5977
0.5977
0.5977
0.5977
0.5977
0.358202
0.596095
0.5977
0.5977
0.677499
0.679581
0.5977
0.358206
0.5977
0.5977
0.5977
0.680246
0.667995
0.358332
0.5977
0.596398
0.5977
0.5977
0.597702
0.358676
0.376733
0.597701
0.5977
0.5977
0.5977
0.358232
0.5977
0.5977
0.5977
0.5977
0.597711
0.5977
0.680768
0.5977
0.597737
0.5977
0.678054
0.5977
0.5977
0.5977
0.5977
0.358403
0.39586
0.59745
0.37027
0.358744
0.5977
0.5977
0.576977
0.5977
0.569328
0.671187
0.5977
0.5977
0.680372
0.5977
0.680819
0.597699
0.400142
0.5977
0.6801
0.5977
0.5977
0.5977
0.5977
0.5977
0.680541
0.457681
0.595004
0.5977
0.679962
0.5977
0.518112
0.5977
0.365951
0.363281
0.5977
0.5977
0.5977
0.472306
0.597702
0.5977
0.5977
0.597709
0.5977
0.358218
0.5977
0.5977
0.5977
0.5977
0.597702
0.680354
0.597729
0.5977
0.593894
0.5977
0.358075
0.5977
0.5977
0.5977
0.597701
0.5977
0.5977
0.5977
0.5977
0.5977
0.5977
0.680912
0.670345
0.359788
0.5977
0.364612
0.5977
0.592704
0.5977
0.5977
0.5977
0.5977
0.5977
0.357938
0.5977
0.5977
0.5977
0.5977
0.407597
0.5977
0.5977
0.5977
0.474482
0.5977
0.680467
0.5977
0.597697
0.5977
0.5977
0.358211
0.5977
0.5977
0.5977
0.558221
0.358657
0.5977
0.5977
0.5977
0.5977
0.5977
0.680661
0.5977
0.5977
0.40438
0.5977
0.5977
0.5977
0.5977
0.5977
0.473261
0.5977
0.5977
0.5977
0.5977
0.5977
0.5977
0.5977
0.606406
0.597696
0.5977
0.5977
0.5977
0.487502
0.502649
0.5977
0.5977
0.5977
0.5977
0.5977
0.5977
0.35806
0.5977
0.678841
0.5977
0.497116
0.5977
0.5977
0.5977
0.5977
0.5977
0.5977
0.597696
0.5977
0.5977
0.564262
0.5977
0.558277
0.597701
0.5977
0.680157
0.679949
0.666317
0.5977
0.5977
0.676742
0.593412
0.678991
0.597698
0.37667
0.5977
0.5977
0.358133
0.484136
0.5977
0.5977
0.597564
0.5977
0.5977
0.5977
0.5977
0.5977
0.5977
0.68041
0.5977
0.5977
0.677939
0.5977
0.597699
0.40242
0.5977
0.5977
0.358387
0.5977
0.5977
0.680241
0.5977
0.554075
0.5977
0.5977
0.5977
0.68069
0.597696
0.5977
0.5977
0.5977
0.5977
0.5977
0.680225
0.5977
0.5977
0.369199
0.5977
0.5977
0.5977
0.5977
0.680183
0.371917
0.5977
0.471352
0.5977
0.597699
0.677589
0.5977
0.5977
0.382853
0.598698
0.5977
0.5977
0.666572
0.591411
0.5977
0.5977
0.5977
0.5977
0.5977
0.5977
0.5977
0.5977
0.5977
0.5977
0.5977
0.5977
0.5977
0.5977
0.5977
0.5977
0.680256
0.5977
0.5977
0.5977
0.597697
0.5977
0.358273
0.5977
0.5977
0.680577
0.5977
0.5977
0.5977
0.5977
0.5977
0.358831
0.476479
0.680432
0.67653
0.5977
0.5977
0.67565
0.358248
0.5977
0.5977
0.5977
0.5977
0.5977
0.5977
0.470091
0.596797
0.597702
0.5977
0.5977
0.5977
0.5977
0.5977
0.597697
0.5977
0.5977
0.5977
0.5977
0.5977
0.5977
0.5977
0.5977
0.5977
0.503366
0.5977
0.5977
0.5977
0.5977
0.5977
0.5977
0.5977
0.597462
0.5977
0.5977
0.358313
0.5977
0.597698
0.559402
0.5977
0.5977
0.555005
0.5977
0.359706
0.67225
0.5977
0.5977
0.5977
0.5977
0.5977
0.679945
0.5977
0.5977
0.597697
0.5977
0.680161
0.57517
0.383681
0.5977
0.5977
0.5977
0.5977
0.680311
0.5977
0.5977
0.5977
0.5977
0.680193
0.5977
0.359656
0.6754
0.5977
0.5977
0.5977
0.572835
0.5977
0.597648
0.5977
0.5977
0.5977
0.38904
0.5977
0.5977
0.5977
0.5977
0.679909
0.5977
0.5977
0.597702
0.5977
0.5977
0.5977
0.5977
0.5977
0.612536
0.5977
0.679684
0.680264
0.597023
0.5977
0.5977
0.5977
0.5977
0.597716
0.411733
0.5977
0.5977
0.5977
0.680281
0.5977
0.5977
0.35828
0.5977
0.5977
0.5977
0.5977
0.5977
0.5977
0.5977
0.5977
0.5977
0.5977
0.5977
0.358869
0.5977
0.5977
0.5977
0.5977
0.5977
0.5977
0.5977
0.5977
0.358332
0.404029
0.680513
0.5977
0.5977
0.5977
0.5977
0.5977
0.597703
0.680392
0.5977
0.358541
0.5977
0.358366
0.597702
0.5977
0.5977
0.5977
0.680011
0.5977
0.5977
0.5977
0.377923
0.5977
0.5977
0.597702
0.597712
0.5977
0.5977
0.680024
0.358325
0.557769
0.680694
0.423629
0.5977
0.5977
0.5977
0.358253
0.50036
0.597696
0.5977
0.591892
0.5977
0.5977
0.5977
0.5977
0.5977
0.5977
0.358042
0.5977
0.364085
0.5977
0.407889
0.5977
0.5977
0.5977
0.5977
0.48991
0.680487
0.593101
0.412291
0.5977
0.5977
0.5977
0.5977
0.597696
0.5977
0.68063
0.5977
0.5977
0.5977
0.5977
0.5977
0.396536
0.5977
0.680301
0.5977
0.358525
0.5977
0.5977
0.5977
0.5977
0.5977
0.5977
0.5977
0.5977
0.5977
0.5977
0.5977
0.5977
0.5977
0.5977
0.366869
0.5977
0.5977
0.390079
0.5977
0.5977
0.5977
0.5977
0.5977
0.5977
0.5977
0.5977
0.597698
0.425309
0.5977
0.375828
0.5977
0.5977
0.42038
0.597704
0.680696
0.5977
0.5977
0.5977
0.5977
0.5977
0.5977
0.5977
0.5977
0.680233
0.5977
0.5977
0.5977
0.5977
0.5977
0.677758
0.5977
0.59773
0.5977
0.5977
0.5977
0.5977
0.359441
0.5977
0.5977
0.5977
0.5977
0.5977
0.5977
0.5977
0.5977
0.440852
0.5977
0.35802
0.5977
0.5977
0.660363
0.5977
0.5977
0.5977
0.5977
0.557398
0.5977
0.5977
0.5977
0.597731
0.580265
0.5977
0.5977
0.5977
0.63699
0.679797
0.5977
0.5977
0.680213
0.5977
0.558396
0.5977
0.5977
0.5977
0.5977
0.5977
0.55919
0.5977
0.5977
0.5977
0.5977
0.5977
0.5977
0.679108
0.5977
0.680314
0.5977
0.423192
0.678775
0.5977
0.5977
0.432215
0.358094
0.581404
0.5977
0.358636
0.597726
0.5977
0.5977
0.473319
0.5977
0.606728
0.5977
0.680183
0.5977
0.574558
0.5977
0.5977
0.5977
0.591233
0.597702
0.5977
0.597722
0.5977
0.5977
0.358623
0.5977
0.5977
0.5977
0.370661
0.680141
0.5977
0.5977
0.499138
0.5977
0.5977
0.35846
0.5977
0.5977
0.597697
0.5977
0.5977
0.5977
0.5977
0.5977
0.60845
0.5977
0.358324
0.5977
0.5977
0.5977
0.5977
0.597701
0.5977
0.374505
0.5977
0.680548
0.5977
0.5977
0.5977
0.5977
0.5977
0.5977
0.597699
0.5977
0.5977
0.364771
0.562121
0.5977
0.5977
0.5977
0.5977
0.5977
0.5977
0.5977
0.5977
0.5977
0.5977
0.366888
0.358322
0.5977
0.597701
0.557507
0.5977
0.5977
0.5977
0.5977
0.5977
0.5977
0.5977
0.364362
0.5977
0.597702
0.5977
0.5977
0.359489
0.597666
0.597728
0.5977
0.5977
0.5977
0.5977
0.358358
0.408724
0.5977
0.5977
0.68053
0.5977
0.361662
0.5977
0.358932
0.5977
0.597627
0.5977
0.420736
0.5977
0.680424
0.5977
0.5977
0.5977
0.597701
0.680535
0.5977
0.5977
0.5977
0.427243
0.5977
0.5977
0.557123
0.497575
0.5977
0.597702
0.5977
0.5977
0.5977
0.680297
0.678345
0.5977
0.5977
0.597701
0.5977
0.680443
0.585028
0.358259
0.5977
0.5977
0.5977
0.358623
0.680145
0.5977
0.5977
0.5977
0.597698
0.5977
0.5977
0.480607
0.680403
0.5977
0.455202
0.679332
0.5977
0.5977
0.5977
0.5977
0.5977
0.5977
0.424407
0.679729
0.5977
0.5977
0.357933
0.680435
0.5977
0.5977
0.5977
0.5977
0.593299
0.5977
0.5977
0.566335
0.5977
0.5977
0.59724
0.680246
0.5977
0.594122
0.597701
0.597177
0.5977
0.5977
0.5977
0.597732
0.422771
0.5977
0.5977
0.5977
0.680773
0.5977
0.5977
0.5977
0.5977
0.679926
0.5977
0.5977