# vtk DataFile Version 1.0
unstructured grid
ascii
DATASET UNSTRUCTURED_GRID
points 13672 float
0.0796578 -0.059106 0
0.00128732 0.00159165 0
0.00227961 -0.00102548 0
0.0791586 -0.0598787 0
-0.0546216 0.01 0
0.000495206 0.025 0
0.0800549 -0.035 0
0.135172 -0.08 0
-0.0546216 -0.0451168 0
0.000495206 -0.0301168 0
0.0800549 -0.0901168 0
0.135172 -0.135117 0
-0.0546216 -0.0451168 -0.00551168
0.000495206 -0.0301168 -0.00551168
0.0800549 -0.0901168 -0.00551168
0.135172 -0.135117 -0.00551168
0.135172 -0.08 -0.00551168
0.0800549 -0.035 -0.00551168
0.000495206 0.025 -0.00551168
-0.0546216 0.01 -0.00551168
0.00128732 0.00159165 -0.00551168
0.00227961 -0.00102548 -0.00551168
0.0791586 -0.0598787 -0.00551168
0.0796578 -0.059106 -0.00551168
0.00165953 -0.000990923 0
0.00119576 -0.000874076 0
0.000866021 -0.000641801 0
0.000645147 -0.000349912 0
0.00052235 -1.7281e-05 0
0.00049972 0.000348016 0
0.000601632 0.000737716 0
0.000861774 0.0011403 0
0.00157235 0.00183217 0
0.00188647 0.00206725 0
0.00222612 0.00230203 0
0.00258713 0.00254351 0
0.00296826 0.00279524 0
0.00337118 0.00305664 0
0.00379785 0.00332658 0
0.00425045 0.00360349 0
0.00473139 0.00388521 0
0.0052432 0.00416895 0
0.0057881 0.00445204 0
0.00636753 0.00473281 0
0.00698281 0.00500961 0
0.00763526 0.00528058 0
0.00832616 0.00554366 0
0.00905691 0.00579603 0
0.00982918 0.00603333 0
0.0106445 0.00625033 0
0.0115038 0.00644128 0
0.0124073 0.00660297 0
0.0133543 0.00673414 0
0.0143444 0.00683382 0
0.0153769 0.00690031 0
0.0164512 0.00693173 0
0.0175666 0.00692547 0
0.0187219 0.00687822 0
0.0199156 0.00678477 0
0.0211454 0.00663864 0
0.0224084 0.00643275 0
0.0237018 0.00616676 0
0.0250249 0.00584739 0
0.026375 0.00547298 0
0.0277479 0.00503752 0
0.0291386 0.00453545 0
0.0305433 0.0039653 0
0.0319572 0.0033256 0
0.0333681 0.00260019 0
0.034775 0.00179799 0
0.0361793 0.000930615 0
0.0375798 3.12222e-06 0
0.0389689 -0.000988429 0
0.0403357 -0.00205109 0
0.041675 -0.00318283 0
0.0429849 -0.00437751 0
0.0442643 -0.00562904 0
0.0455126 -0.00693089 0
0.0467314 -0.00827518 0
0.0479204 -0.00965638 0
0.0490661 -0.0110799 0
0.0501515 -0.0125519 0
0.0511696 -0.0140695 0
0.0521492 -0.0156071 0
0.0531202 -0.0171411 0
0.0540851 -0.0186663 0
0.0550431 -0.0201798 0
0.0559923 -0.0216793 0
0.0569311 -0.0231626 0
0.0578582 -0.0246273 0
0.0587723 -0.0260715 0
0.0596721 -0.027493 0
0.0605563 -0.02889 0
0.0614241 -0.0302609 0
0.0622742 -0.0316042 0
0.063106 -0.0329183 0
0.0639186 -0.034202 0
0.0647113 -0.0354543 0
0.0654835 -0.0366743 0
0.0662345 -0.0378613 0
0.0669642 -0.0390145 0
0.0676726 -0.0401333 0
0.0683597 -0.0412172 0
0.0690246 -0.0422665 0
0.0696662 -0.0432819 0
0.0702841 -0.0442636 0
0.0708793 -0.0452111 0
0.0714538 -0.0461237 0
0.072009 -0.047001 0
0.0725452 -0.0478434 0
0.0730611 -0.0486524 0
0.073556 -0.0494294 0
0.0740291 -0.0501756 0
0.0744812 -0.0508916 0
0.0749138 -0.0515773 0
0.0753285 -0.0522331 0
0.0757266 -0.0528592 0
0.076109 -0.0534564 0
0.0764753 -0.0540264 0
0.0768243 -0.054571 0
0.0771553 -0.0550919 0
0.0774679 -0.0555901 0
0.0777617 -0.0560669 0
0.0780369 -0.056523 0
0.0782958 -0.0569578 0
0.0785421 -0.0573703 0
0.0787786 -0.0577603 0
0.0790073 -0.0581279 0
0.0792295 -0.058474 0
0.0794462 -0.0587995 0
0.0798803 -0.0594162 0
0.0800272 -0.0596588 0
0.0800357 -0.0598891 0
0.0799275 -0.0600784 0
0.0797205 -0.0601773 0
0.0794593 -0.0601051 0
0.0789155 -0.0596491 0
0.0786707 -0.0593963 0
0.0784111 -0.0591319 0
0.0781372 -0.0588542 0
0.0778566 -0.0585548 0
0.0775715 -0.0582308 0
0.0772803 -0.0578828 0
0.0769832 -0.0575099 0
0.0766822 -0.0571097 0
0.0763801 -0.0566796 0
0.0760759 -0.0562196 0
0.0757623 -0.0557337 0
0.0754359 -0.0552232 0
0.0750951 -0.0546879 0
0.0747379 -0.054128 0
0.0743626 -0.0535435 0
0.0739688 -0.0529338 0
0.0735559 -0.0522981 0
0.0731238 -0.0516357 0
0.0726718 -0.050946 0
0.0721991 -0.0502288 0
0.0717046 -0.049484 0
0.0711872 -0.0487117 0
0.0706461 -0.047912 0
0.0700804 -0.0470849 0
0.0694892 -0.0462308 0
0.0688718 -0.0453499 0
0.0682271 -0.0444431 0
0.0675544 -0.043511 0
0.0668527 -0.0425546 0
0.0661215 -0.0415748 0
0.06536 -0.040573 0
0.0645676 -0.0395504 0
0.0637439 -0.0385087 0
0.0628887 -0.0374493 0
0.062002 -0.0363741 0
0.0610838 -0.0352847 0
0.0601345 -0.0341831 0
0.0591547 -0.033071 0
0.0581456 -0.0319502 0
0.0571083 -0.0308224 0
0.0560444 -0.0296893 0
0.0549562 -0.028552 0
0.053845 -0.0274126 0
0.0527113 -0.0262746 0
0.051554 -0.0251427 0
0.0503724 -0.0240222 0
0.0491675 -0.0229164 0
0.047941 -0.0218282 0
0.0466955 -0.0207597 0
0.0454337 -0.0197126 0
0.0441592 -0.0186878 0
0.0428751 -0.0176863 0
0.0415841 -0.0167097 0
0.0402878 -0.0157609 0
0.0389879 -0.0148428 0
0.0376864 -0.0139575 0
0.0363853 -0.013107 0
0.0350871 -0.0122931 0
0.0337942 -0.0115164 0
0.0325095 -0.0107772 0
0.0312357 -0.0100756 0
0.0299758 -0.00941024 0
0.0287337 -0.00877784 0
0.0275126 -0.00817571 0
0.0263139 -0.00760375 0
0.0251376 -0.00706528 0
0.0239829 -0.0065649 0
0.0228537 -0.00609619 0
0.0217522 -0.00565563 0
0.0206795 -0.00524226 0
0.0196364 -0.00485507 0
0.0186233 -0.00449318 0
0.0176408 -0.00415577 0
0.016689 -0.00384204 0
0.0157682 -0.00355115 0
0.0148783 -0.00328218 0
0.0140192 -0.00303468 0
0.0131906 -0.00280795 0
0.0123925 -0.00260016 0
0.0116246 -0.00241012 0
0.0108864 -0.00223769 0
0.0101774 -0.00208212 0
0.00949701 -0.00194206 0
0.00884483 -0.0018163 0
0.0082202 -0.0017039 0
0.00762247 -0.00160391 0
0.00705097 -0.00151528 0
0.006505 -0.00143697 0
0.0059838 -0.00136806 0
0.00548662 -0.00130772 0
0.00501265 -0.00125519 0
0.00456114 -0.00120954 0
0.00413136 -0.00116914 0
0.00372257 -0.00113251 0
0.00333398 -0.00109853 0
0.00296466 -0.00106798 0
0.00261363 -0.0010431 0
-0.052721 -0.0445996 0
-0.0508204 -0.0440823 0
-0.0489199 -0.0435651 0
-0.0470193 -0.0430478 0
-0.0451187 -0.0425306 0
-0.0432181 -0.0420134 0
-0.0413175 -0.0414961 0
-0.039417 -0.0409789 0
-0.0375164 -0.0404616 0
-0.0356158 -0.0399444 0
-0.0337152 -0.0394271 0
-0.0318146 -0.0389099 0
-0.0299141 -0.0383927 0
-0.0280135 -0.0378754 0
-0.0261129 -0.0373582 0
-0.0242123 -0.0368409 0
-0.0223117 -0.0363237 0
-0.0204112 -0.0358065 0
-0.0185106 -0.0352892 0
-0.01661 -0.034772 0
-0.0147094 -0.0342547 0
-0.0128088 -0.0337375 0
-0.0109083 -0.0332202 0
-0.00900769 -0.032703 0
-0.00710711 -0.0321858 0
-0.00520653 -0.0316685 0
-0.00330595 -0.0311513 0
-0.00140537 -0.030634 0
0.00190689 -0.0299614 0
0.00332271 -0.0298498 0
0.00474133 -0.0297825 0
0.00616136 -0.0297597 0
0.0075814 -0.0297814 0
0.00900007 -0.0298477 0
0.010416 -0.0299583 0
0.0118278 -0.0301127 0
0.0132342 -0.0303103 0
0.0146339 -0.0305504 0
0.0160259 -0.0308322 0
0.0174091 -0.0311546 0
0.0187824 -0.0315166 0
0.020145 -0.031917 0
0.0214961 -0.0323546 0
0.0228351 -0.032828 0
0.0241613 -0.0333361 0
0.0254744 -0.0338774 0
0.0267738 -0.0344507 0
0.0280592 -0.0350545 0
0.0293306 -0.0356877 0
0.0305875 -0.0363488 0
0.0318301 -0.0370367 0
0.0330581 -0.0377501 0
0.0342717 -0.0384879 0
0.0354708 -0.0392489 0
0.0366556 -0.0400321 0
0.0378262 -0.0408363 0
0.0389828 -0.0416607 0
0.0401254 -0.0425042 0
0.0412543 -0.0433659 0
0.0423698 -0.0442451 0
0.043472 -0.0451408 0
0.0445612 -0.0460523 0
0.0456375 -0.0469789 0
0.0467013 -0.0479199 0
0.0477529 -0.0488746 0
0.0487923 -0.0498424 0
0.04982 -0.0508227 0
0.0508362 -0.051815 0
0.051841 -0.0528187 0
0.0528348 -0.0538333 0
0.0538178 -0.0548584 0
0.0547903 -0.0558935 0
0.0557524 -0.0569382 0
0.0567045 -0.0579922 0
0.0576467 -0.0590549 0
0.0585792 -0.0601261 0
0.0595024 -0.0612055 0
0.0604163 -0.0622926 0
0.0613212 -0.0633873 0
0.0622174 -0.0644891 0
0.0631049 -0.0655979 0
0.0639841 -0.0667134 0
0.064855 -0.0678353 0
0.0657179 -0.0689633 0
0.0665729 -0.0700974 0
0.0674202 -0.0712372 0
0.06826 -0.0723826 0
0.0690925 -0.0735333 0
0.0699178 -0.0746892 0
0.070736 -0.0758501 0
0.0715473 -0.0770159 0
0.0723518 -0.0781863 0
0.0731498 -0.0793612 0
0.0739412 -0.0805405 0
0.0747264 -0.081724 0
0.0755053 -0.0829116 0
0.0762781 -0.0841033 0
0.0770449 -0.0852987 0
0.0778059 -0.0864979 0
0.0785611 -0.0877007 0
0.0793108 -0.088907 0
0.0814681 -0.0912706 0
0.0828814 -0.0924245 0
0.0842946 -0.0935783 0
0.0857079 -0.0947322 0
0.0871211 -0.095886 0
0.0885344 -0.0970399 0
0.0899476 -0.0981937 0
0.0913609 -0.0993476 0
0.0927741 -0.100501 0
0.0941874 -0.101655 0
0.0956006 -0.102809 0
0.0970139 -0.103963 0
0.0984272 -0.105117 0
0.0998404 -0.106271 0
0.101254 -0.107424 0
0.102667 -0.108578 0
0.10408 -0.109732 0
0.105493 -0.110886 0
0.106907 -0.11204 0
0.10832 -0.113194 0
0.109733 -0.114348 0
0.111146 -0.115501 0
0.11256 -0.116655 0
0.113973 -0.117809 0
0.115386 -0.118963 0
0.116799 -0.120117 0
0.118213 -0.121271 0
0.119626 -0.122424 0
0.121039 -0.123578 0
0.122452 -0.124732 0
0.123866 -0.125886 0
0.125279 -0.12704 0
0.126692 -0.128194 0
0.128105 -0.129348 0
0.129519 -0.130501 0
0.130932 -0.131655 0
0.132345 -0.132809 0
0.133758 -0.133963 0
0.135172 -0.133216 0
0.135172 -0.131316 0
0.135172 -0.129415 0
0.135172 -0.127514 0
0.135172 -0.125614 0
0.135172 -0.123713 0
0.135172 -0.121813 0
0.135172 -0.119912 0
0.135172 -0.118012 0
0.135172 -0.116111 0
0.135172 -0.11421 0
0.135172 -0.11231 0
0.135172 -0.110409 0
0.135172 -0.108509 0
0.135172 -0.106608 0
0.135172 -0.104708 0
0.135172 -0.102807 0
0.135172 -0.100906 0
0.135172 -0.0990058 0
0.135172 -0.0971052 0
0.135172 -0.0952046 0
0.135172 -0.0933041 0
0.135172 -0.0914035 0
0.135172 -0.0895029 0
0.135172 -0.0876023 0
0.135172 -0.0857017 0
0.135172 -0.0838012 0
0.135172 -0.0819006 0
0.133758 -0.0788462 0
0.132345 -0.0776923 0
0.130932 -0.0765385 0
0.129519 -0.0753846 0
0.128105 -0.0742308 0
0.126692 -0.0730769 0
0.125279 -0.0719231 0
0.123866 -0.0707692 0
0.122452 -0.0696154 0
0.121039 -0.0684615 0
0.119626 -0.0673077 0
0.118213 -0.0661538 0
0.116799 -0.065 0
0.115386 -0.0638462 0
0.113973 -0.0626923 0
0.11256 -0.0615385 0
0.111146 -0.0603846 0
0.109733 -0.0592308 0
0.10832 -0.0580769 0
0.106907 -0.0569231 0
0.105493 -0.0557692 0
0.10408 -0.0546154 0
0.102667 -0.0534615 0
0.101254 -0.0523077 0
0.0998404 -0.0511538 0
0.0984272 -0.05 0
0.0970139 -0.0488462 0
0.0956006 -0.0476923 0
[...]
CELL_DATA 13116
SCALARS rho float
LOOKUP_TABLE default
0.586541
0.69038
0.332373
0.69977
0.700291
0.687551
0.319823
0.701223
0.529411
0.70035
0.32642
0.296713
0.700363
0.301937
0.323469
0.688019
0.580995
0.692101
0.702548
0.309326
0.580542
0.357632
0.319098
0.69683
0.588665
0.698085
0.700317
0.331051
0.56235
0.637163
0.562785
0.299758
0.54343
0.45324
0.327507
0.584271
0.666162
0.707712
0.660243
0.700763
0.696431
0.701091
0.465797
0.329265
0.705345
0.703586
0.688474
0.704926
0.326094
0.50772
0.701238
0.467538
0.2726
0.573471
0.546798
0.571783
0.32779
0.695028
0.511498
0.298873
0.302339
0.700592
0.68935
0.640633
0.559474
0.303681
0.694601
0.666229
0.697424
0.554977
0.329835
0.547952
0.373331
0.319984
0.564044
0.34914
0.664777
0.702517
0.317497
0.688147
0.682707
0.699356
0.698274
0.705342
0.711412
0.385436
0.309577
0.655349
0.706949
0.342216
0.306715
0.692063
0.700462
0.700385
0.646589
0.596887
0.590664
0.560436
0.564526
0.566074
0.661892
0.669882
0.697707
0.433036
0.699679
0.287866
0.339288
0.504167
0.327031
0.574785
0.529695
0.706624
0.593221
0.683006
0.688912
0.695041
0.30912
0.370527
0.704661
0.697313
0.664472
0.376331
0.697987
0.304863
0.70075
0.424483
0.309549
0.481417
0.325756
0.504459
0.704248
0.703683
0.448072
0.340288
0.429083
0.624254
0.560161
0.699625
0.660033
0.697431
0.65545
0.689713
0.485241
0.657659
0.678098
0.297863
0.329128
0.69656
0.700489
0.700953
0.496271
0.705332
0.704425
0.341135
0.699998
0.711919
0.3209
0.668111
0.56072
0.654136
0.696212
0.323171
0.698031
0.322156
0.384224
0.700861
0.699625
0.691464
0.323897
0.409206
0.380376
0.560203
0.310922
0.47691
0.694558
0.317914
0.35028
0.367815
0.706425
0.693021
0.316494
0.404142
0.552697
0.664308
0.693406
0.515742
0.319044
0.692883
0.708816
0.448799
0.649919
0.696527
0.556967
0.321271
0.70395
0.688005
0.700043
0.693421
0.709323
0.419911
0.434736
0.583254
0.476997
0.317868
0.704539
0.706472
0.474292
0.603533
0.257748
0.320829
0.345605
0.691845
0.322449
0.320452
0.336423
0.342115
0.361599
0.657492
0.700295
0.370297
0.326812
0.694397
0.524996
0.31789
0.496935
0.700599
0.676139
0.331468
0.694471
0.350683
0.701657
0.301921
0.55822
0.533827
0.56042
0.700707
0.568164
0.294295
0.421278
0.651647
0.561446
0.687745
0.560133
0.572605
0.701344
0.350655
0.700258
0.700238
0.56342
0.334606
0.327772
0.705793
0.704569
0.559084
0.705477
0.580418
0.678167
0.32471
0.302442
0.400304
0.262051
0.702381
0.699988
0.663963
0.311334
0.705441
0.30559
0.380876
0.698043
0.337465
0.696604
0.701249
0.56164
0.695062
0.295021
0.561894
0.688469
0.562846
0.699601
0.313988
0.305776
0.322421
0.621435
0.380849
0.339542
0.323947
0.323283
0.705343
0.253259
0.70805
0.700556
0.306223
0.310325
0.304385
0.420776
0.33353
0.654724
0.649982
0.704719
0.334907
0.692617
0.530986
0.308441
0.305842
0.677694
0.704403
0.692598
0.321141
0.688292
0.436086
0.703957
0.700958
0.700697
0.700977
0.322326
0.694394
0.283084
0.691881
0.70035
0.647341
0.317455
0.320092
0.700429
0.304157
0.699406
0.700617
0.382312
0.6779
0.697836
0.306001
0.7073
0.70027
0.284807
0.701864
0.371305
0.516405
0.702698
0.3848
0.66984
0.310481
0.693943
0.322083
0.600337
0.685396
0.700224
0.330344
0.345131
0.711634
0.342537
0.704993
0.708942
0.398692
0.560446
0.328035
0.385775
0.70574
0.502022
0.667568
0.306384
0.321788
0.700227
0.700489
0.329525
0.700624
0.308102
0.291968
0.696373
0.702378
0.514965
0.355564
0.701012
0.560442
0.688095
0.707969
0.701005
0.499899
0.389783
0.257502
0.315248
0.687787
0.316918
0.553291
0.380783
0.316791
0.34006
0.521955
0.114416
0.340621
0.710326
0.300589
0.698893
0.565953
0.700865
0.646705
0.700242
0.387672
0.305701
0.418836
0.378213
0.70555
0.591053
0.697867
0.565728
0.678983
0.618615
0.700095
0.640877
0.635559
0.702572
0.687105
0.685839
0.405467
0.475306
0.583272
0.363153
0.646541
0.574077
0.284886
0.694678
0.561299
0.322996
0.312101
0.322542
0.314425
0.590065
0.339648
0.321598
0.693532
0.308615
0.536919
0.339149
0.689786
0.689607
0.335047
0.344626
0.705807
0.416808
0.345038
0.309876
0.34911
0.326911
0.306072
0.313199
0.357248
0.385346
0.31621
0.668718
0.40196
0.7117
0.42179
0.301507
0.440556
0.293927
0.33986
0.294888
0.698851
0.394567
0.609707
0.516887
0.304598
0.607647
0.706201
0.382521
0.677152
0.624177
0.625832
0.306593
0.560755
0.371454
0.698642
0.563428
0.326263
0.271644
0.707305
0.37947
0.383677
0.688653
0.338914
0.666659
0.682089
0.310532
0.350367
0.310967
0.473928
0.308502
0.267758
0.318539
0.286692
0.700381
0.700197
0.426362
0.569598
0.433175
0.706465
0.350836
0.361471
0.533626
0.326688
0.705949
0.320409
0.353728
0.44369
0.706274
0.70034
0.510064
0.382963
0.27375
0.508305
0.70111
0.563825
0.505697
0.692563
0.700642
0.317262
0.688051
0.529688
0.650326
0.331188
0.332359
0.68178
0.700458
0.644427
0.700584
0.710689
0.700364
0.694783
0.647533
0.699902
0.333542
0.706864
0.310798
0.267236
0.323614
0.699877
0.706194
0.309438
0.711574
0.577879
0.318926
0.599738
0.704711
0.699697
0.330662
0.357702
0.704329
0.348311
0.34498
0.287958
0.318694
0.705863
0.277894
0.699485
0.400794
0.689259
0.700989
0.695252
0.700474
0.349432
0.313856
0.706098
0.701979
0.665024
0.700496
0.700166
0.42908
0.306304
0.327148
0.690777
0.521829
0.323089
0.415868
0.315884
0.702079
0.694424
0.327975
0.357378
0.711887
0.391419
0.709583
0.630175
0.324829
0.350334
0.66338
0.561146
0.322933
0.701773
0.699551
0.706114
0.349766
0.560217
0.324701
0.560406
0.648531
0.356848
0.359464
0.344498
0.560262
0.327618
0.31372
0.374516
0.6391
0.701816
0.314831
0.30084
0.328929
0.614229
0.373556
0.687992
0.29914
0.550453
0.700573
0.419354
0.321549
0.320076
0.431202
0.327768
0.698505
0.326234
0.359276
0.688535
0.293651
0.691534
0.696587
0.560643
0.332976
0.705848
0.699526
0.699896
0.691455
0.702731
0.695888
0.296554
0.56148
0.375411
0.705683
0.31128
0.701214
0.504861
0.320807
0.559803
0.701619
0.34626
0.63843
0.307658
0.332959
0.693094
0.698514
0.314259
0.296674
0.316714
0.294673
0.70232
0.696899
0.348811
0.309503
0.704914
0.699045
0.553675
0.699378
0.693691
0.323297
0.700117
0.38663
0.701092
0.380407
0.583597
0.422285
0.694321
0.669154
0.530592
0.346013
0.329513
0.694574
0.559516
0.572614
0.699095
0.264101
0.690677
0.69995
0.331491
0.472616
0.699738
0.37642
0.558234
0.652782
0.319213
0.698823
0.644521
0.370823
0.699768
0.322073
0.711213
0.337244
0.691032
0.688465
0.329543
0.652754
0.698473
0.704099
0.581184
0.6942
0.531791
0.341728
0.431784
0.299101
0.3174
0.5602
0.500567
0.697638
0.700884
0.327217
0.369624
0.69893
0.700563
0.705795
0.701266
0.312408
0.686842
0.700316
0.310138
0.292185
0.704671
0.70589
0.71147
0.29234
0.536713
0.333302
0.697996
0.69828
0.564051
0.698968
0.321028
0.702189
0.710197
0.699574
0.699074
0.696574
0.371666
0.701629
0.320985
0.675675
0.700346
0.409053
0.682457
0.572368
0.700873
0.441085
0.404778
0.535368
0.634715
0.347198
0.356685
0.336399
0.317408
0.688904
0.689486
0.572497
0.327655
0.316758
0.698029
0.668916
0.285321
0.366854
0.416939
0.670607
0.693616
0.708888
0.6907
0.323028
0.347676
0.561475
0.303436
0.320543
0.329785
0.691416
0.332815
0.349332
0.56824
0.706435
0.706365
0.683926
0.691714
0.310118
0.309997
0.328397
0.525594
0.395162
0.304169
0.666311
0.688183
0.705444
0.6992
0.293957
0.334017
0.700537
0.332553
0.696145
0.689185
0.560958
0.31395
0.350103
0.709956
0.562639
0.604869
0.28171
0.711085
0.686363
0.566943
0.700871
0.701184
0.561887
0.691498
0.31334
0.691499
0.559947
0.657069
0.697334
0.560198
0.707149
0.560217
0.699529
0.356061
0.360497
0.334429
0.560053
0.509265
0.335035
0.699468
0.704702
0.296042
0.642187
0.3346
0.650009
0.510579
0.306484
0.700579
0.695495
0.325909
0.492121
0.560558
0.323046
0.700377
0.304334
0.285946
0.615845
0.582262
0.440122
0.698704
0.337611
0.698267
0.354874
0.293375
0.69103
0.32154
0.598421
0.315453
0.643619
0.583416
0.560309
0.699855
0.264366
0.357824
0.673409
0.471869
0.705785
0.462558
0.592993
0.688172
0.699269
0.482213
0.57181
0.706242
0.699997
0.695271
0.323811
0.354844
0.486124
0.705197
0.700341
0.375089
0.697818
0.607198
0.418812
0.314175
0.649757
0.670475
0.560171
0.560256
0.684266
0.686891
0.662032
0.675303
0.311772
0.640871
0.415053
0.699928
0.706111
0.309888
0.702461
0.700446
0.375224
0.286572
0.304581
0.560107
0.32182
0.61307
0.701219
0.640771
0.296318
0.707883
0.312821
0.538161
0.617825
0.565482
0.664336
0.607566
0.596744
0.681546
0.530963
0.70548
0.332614
0.693828
0.695289
0.45537
0.560264
0.692983
0.322921
0.254175
0.323925
0.700616
0.356494
0.560416
0.323094
0.701145
0.278492
0.42269
0.303398
0.698132
0.701331
0.57817
0.24858
0.599759
0.676525
0.319663
0.555347
0.700157
0.301849
0.573314
0.564057
0.700582
0.697073
0.326285
0.501085
0.705525
0.702426
0.674193
0.351685
0.398377
0.709427
0.560699
0.561286
0.560246
0.570312
0.703862
0.565777
0.69928
0.351249
0.316561
0.560198
0.700361
0.653536
0.306043
0.694057
0.58527
0.618517
0.350739
0.369862
0.700648
0.699779
0.522821
0.390137
0.698791
0.560289
0.3216
0.584514
0.690774
0.324863
0.300352
0.279463
0.711253
0.362289
0.334063
0.708314
0.467048
0.700065
0.647062
0.322096
0.306548
0.700667
0.372192
0.344147
0.563317
0.292431
0.355633
0.577424
0.702814
0.70592
0.31675
0.337082
0.329795
0.696715
0.290006
0.705845
0.320513
0.701028
0.701684
0.706946
0.693168
0.699582
0.697016
0.693502
0.700392
0.705564
0.271437
0.322804
0.692707
0.670389
0.443812
0.707963
0.534006
0.644684
0.658426
0.334547
0.696368
0.700359
0.706407
0.337543
0.702085
0.364295
0.705463
0.431701
0.689876
0.693493
0.309473
0.705183
0.325478
0.448796
0.688506
0.331711
0.670388
0.560076
0.701829
0.320708
0.693599
0.318949
0.31273
0.316887
0.337595
0.663068
0.303865
0.653813
0.589806
0.386
0.321607
0.424863
0.534306
0.627652
0.679952
0.333344
0.302742
0.327913
0.303439
0.240558
0.630897
0.706939
0.331487
0.611443
0.701274
0.283759
0.700357
0.666956
0.604254
0.337115
0.560606
0.69277
0.702467
0.700997
0.314733
0.705815
0.702234
0.702693
0.647926
0.689556
0.332221
0.317852
0.705271
0.481152
0.352959
0.690556
0.318593
0.51809
0.633029
0.710606
0.711428
0.309592
0.707667
0.400742
0.338415
0.680693
0.704319
0.700053
0.700288
0.661193
0.31369
0.700602
0.293152
0.442067
0.700855
0.564337
0.705655
0.336579
0.303298
0.700358
0.312453
0.704628
0.62366
0.395887
0.345329
0.697224
0.315461
0.695086
0.704924
0.665091
0.316016
0.361712
0.472289
0.526768
0.621357
0.454146
0.689315
0.681736
0.710231
0.559817
0.700684
0.287115
0.347472
0.703071
0.689414
0.671799
0.405622
0.316815
0.685329
0.297218
0.694042
0.575998
0.391665
0.705484
0.313719
0.70207
0.336674
0.700069
0.294251
0.70595
0.691837
0.295838
0.700754
0.634751
0.2984
0.572094
0.702172
0.537411
0.2942
0.370181
0.454376
0.699708
0.683801
0.377313
0.533081
0.701875
0.687985
0.295481
0.626167
0.70182
0.385596
0.689192
0.69222
0.28978
0.7055
0.561652
0.331807
0.59948
0.309003
0.651981
0.332227
0.285554
0.700477
0.340455
0.331118
0.269676
0.694241
0.696384
0.412912
0.699087
0.365368
0.67828
0.321294
0.697011
0.38096
0.68907
0.705284
0.660575
0.56952
0.495127
0.690377
0.604794
0.331179
0.612138
0.661234
0.542373
0.700398
0.431046
0.424566
0.700509
0.315085
0.536988
0.335408
0.697737
0.275193
0.320861
0.695229
0.692835
0.311596
0.699152
0.687067
0.559904
0.701232
0.560301
0.314371
0.700479
0.316883
0.322453
0.700359
0.692627
0.701073
0.712005
0.303128
0.335947
0.328689
0.693089
0.585588
0.36715
0.702887
0.303542
0.330021
0.350154
0.707998
0.378011
0.700779
0.705653
0.60867
0.698676
0.70557
0.578604
0.660725
0.382369
0.29878
0.312656
0.560294
0.560292
0.306793
0.631545
0.710653
0.659496
0.325773
0.44366
0.681184
0.286146
0.679757
0.650608
0.31918
0.679379
0.690595
0.337768
0.705966
0.33799
0.697
0.700074
0.700538
0.287926
0.405668
0.669436
0.301779
0.375774
0.697884
0.317373
0.688758
0.695097
0.696539
0.686801
0.358356
0.559852
0.680017
0.702325
0.336628
0.700136
0.355838
0.294787
0.709022
0.693956
0.596601
0.236384
0.691185
0.607278
0.563943
0.302645
0.306009
0.348171
0.699867
0.323639
0.303471
0.362008
0.648415
0.327723
0.313212
0.385954
0.705787
0.324932
0.569395
0.654127
0.699579
0.323421
0.705682
0.643815
0.60555
0.372725
0.64573
0.333051
0.31633
0.693226
0.311331
0.634463
0.699805
0.56032
0.323927
0.323441
0.345705
0.506305
0.560114
0.243067
0.707419
0.694073
0.689273
0.323807
0.293001
0.32622
0.690046
0.332278
0.559879
0.565965
0.67467
0.708928
0.314879
0.638344
0.298375
0.650859
0.625881
0.700574
0.633436
0.544999
0.649748
0.672155
0.702058
0.30972
0.414529
0.31772
0.688858
0.524284
0.563831
0.323042
0.377907
0.699688
0.705569
0.560885
0.312365
0.700323
0.504423
0.510025
0.684941
0.32716
0.31329
0.296611
0.694276
0.588904
0.645041
0.707369
0.329265
0.701849
0.640101
0.587884
0.585664
0.701653
0.700418
0.688026
0.695346
0.699977
0.326702
0.704607
0.700254
0.689403
0.70518
0.694071
0.61968
0.318879
0.292034
0.662207
0.350706
0.396028
0.701032
0.337693
0.608194
0.69718
0.691228
0.70674
0.324987
0.701355
0.316779
0.30871
0.688239
0.704513
0.69945
0.325308
0.700643
0.698623
0.670619
0.692052
0.35867
0.689627
0.700403
0.688096
0.416755
0.694307
0.328225
0.69906
0.337828
0.320429
0.583867
0.410751
0.700587
0.696746
0.697143
0.369125
0.689354
0.416821
0.327134
0.710054
0.425013
0.3469
0.696435
0.291979
0.451717
0.66099
0.683947
0.708789
0.428048
0.549975
0.649368
0.695127
0.620362
0.700127
0.48246
0.70116
0.708034
0.640851
0.29312
0.31906
0.406184
0.700267
0.32314
0.652119
0.699705
0.596591
0.695209
0.566122
0.67198
0.677076
0.336406
0.698852
0.70797
0.552434
0.706169
0.700564
0.698823
0.68179
0.325144
0.353269
0.705482
0.529933
0.572094
0.698951
0.705631
0.70002
0.700606
0.700118
0.618536
0.683676
0.700471
0.300105
0.297232
0.284267
0.370033
0.560888
0.433948
0.562505
0.705556
0.682005
0.323845
0.706605
0.699785
0.325078
0.358193
0.560617
0.701722
0.328005
0.29161
0.289592
0.55978
0.697698
0.420269
0.293664
0.31753
0.288225
0.370303
0.353744
0.701766
0.70525
0.695845
0.311868
0.692394
0.617103
0.569629
0.348634
0.310283
0.709053
0.560105
0.344012
0.689174
0.335763
0.695676
0.326616
0.700083
0.307925
0.705872
0.700845
0.323323
0.512322
0.326974
0.700435
0.295437
0.621783
0.316714
0.49598
0.333562
0.619986
0.321355
0.566142
0.558258
0.569705
0.69884
0.351144
0.698016
0.675475
0.700742
0.613553
0.678824
0.311144
0.440398
0.310196
0.70014
0.293292
0.700599
0.503241
0.691483
0.700651
0.503687
0.702255
0.331719
0.305463
0.30671
0.489595
0.587888
0.70591
0.328317
0.339889
0.690487
0.340713
0.313902
0.611005
0.359414
0.346949
0.291153
0.700946
0.631537
0.624611
0.320188
0.695402
0.694736
0.295434
0.301191
0.710737
0.691035
0.648434
0.457434
0.359458
0.335498
0.338999
0.702387
0.666268
0.525152
0.678341
0.266173
0.567543
0.315396
0.558615
0.700494
0.313497
0.307184
0.667257
0.606172
0.700414
0.70017
0.699803
0.700713
0.700865
0.341756
0.362414
0.320988
0.312158
0.583948
0.561256
0.633407
0.31116
0.326259
0.460193
0.299692
0.700338
0.682478
0.333618
0.330219
0.696032
0.323518
0.649391
0.699336
0.698097
0.688919
0.587634
0.344081
0.306773
0.686358
0.314648
0.439108
0.410632
0.672156
0.696524
0.280019
0.319743
0.561258
0.318805
0.694615
0.700336
0.329735
0.379285
0.257981
0.701465
0.307905
0.560068
0.696518
0.602092
0.292812
0.477666
0.703636
0.708044
0.317515
0.706134
0.659932
0.305933
0.705022
0.700625
0.333587
0.346189
0.710061
0.31854
0.311002
0.700751
0.319418
0.705294
0.671329
0.699649
0.653414
0.700478
0.694747
0.68468
0.326262
0.365488
0.668471
0.705588
0.403326
0.700523
0.341938
0.699224
0.70971
0.550613
0.642595
0.440352
0.418233
0.706652
0.702873
0.709391
0.700967
0.695571
0.56068
0.701169
0.560746
0.70264
0.709276
0.70188
0.560146
0.6872
0.299631
0.700342
0.330507
0.696872
0.703608
0.69686
0.69524
0.685037
0.376282
0.344624
0.310492
0.319027
0.695401
0.307656
0.338493
0.685679
0.292357
0.694792
0.338665
0.701906
0.70582
0.339676
0.341678
0.393974
0.700237
0.322527
0.705942
0.704908
0.346677
0.709325
0.513856
0.424476
0.329978
0.294938
0.68011
0.3481
0.699168
0.563919
0.332201
0.699098
0.696887
0.699803
0.336285
0.572242
0.31353
0.69295
0.681791
0.695342
0.354121
0.705159
0.699277
0.70541
0.389412
0.700233
0.343849
0.317966
0.700502
0.428674
0.700104
0.432928
0.351768
0.390938
0.702282
0.328179
0.300033
0.343072
0.510602
0.562262
0.705712
0.293249
0.612383
0.700268
0.504477
0.457728
0.349328
0.516096
0.353337
0.312786
0.706715
0.320469
0.336728
0.700747
0.700146
0.327955
0.690688
0.34489
0.560888
0.331635
0.707196
0.55884
0.686924
0.668061
0.361057
0.313603
0.316083
0.686451
0.711184
0.546801
0.513224
0.336044
0.304398
0.694882
0.326817
0.705219
0.345147
0.562556
0.668402
0.306644
0.328885
0.319992
0.319246
0.329747
0.669381
0.694737
0.308233
0.705734
0.63527
0.339058
0.30434
0.700113
0.344325
0.70567
0.376522
0.687666
0.647712
0.70573
0.56114
0.343023
0.700122
0.697686
0.700847
0.342911
0.681469
0.558853
0.397084
0.700273
0.660917
0.701661
0.697581
0.700852
0.700718
0.701071
0.689608
0.701685
0.332502
0.699544
0.320144
0.469131
0.6989
0.315989
0.70783
0.695302
0.336478
0.703356
0.343599
0.307761
0.700949
0.688038
0.700222
0.32087
0.698326
0.596694
0.331621
0.310109
0.699957
0.694524
0.356096
0.35377
0.699677
0.700166
0.351761
0.639268
0.700749
0.632879
0.308057
0.341873
0.309632
0.64779
0.296531
0.706023
0.688108
0.695426
0.623328
0.705648
0.319775
0.71178
0.581973
0.700733
0.632813
0.319996
0.323578
0.276953
0.697224
0.705406
0.373402
0.645671
0.338263
0.663064
0.696845
0.264578
0.657661
0.706502
0.622126
0.312845
0.306761
0.369603
0.70517
0.700136
0.593939
0.457649
0.705462
0.341702
0.625094
0.562661
0.704676
0.317841
0.593406
0.335823
0.698152
0.288146
0.706392
0.700068
0.319447
0.704997
0.468393
0.560096
0.646452
0.559876
0.700515
0.424456
0.694838
0.697371
0.69571
0.706241
0.416557
0.562903
0.258679
0.698209
0.271775
0.318667
0.275291
0.329229
0.350891
0.308631
0.700831
0.338078
0.311358
0.658896
0.704785
0.695868
0.419718
0.683006
0.676993
0.688238
0.309981
0.63413
0.694647
0.375541
0.351819
0.314562
0.625074
0.447652
0.32817
0.627856
0.294824
0.560297
0.442099
0.306152
0.418097
0.642135
0.399023
0.694603
0.26498
0.534314
0.353994
0.702264
0.366783
0.659162
0.563345
0.708751
0.456072
0.317201
0.702462
0.70035
0.3581
0.312714
0.688089
0.317846
0.693234
0.314844
0.513173
0.279823
0.694611
0.367748
0.700609
0.316816
0.697163
0.705486
0.702197
0.560302
0.258441
0.320764
0.418317
0.699237
0.684244
0.701878
0.592295
0.343972
0.702243
0.373539
0.710803
0.678373
0.427611
0.341173
0.699066
0.706327
0.314461
0.561518
0.702294
0.699973
0.699636
0.270672
0.626773
0.328447
0.700488
0.2906
0.623573
0.710071
0.702806
0.700614
0.335532
0.700141
0.338745
0.338895
0.694516
0.560424
0.535123
0.706155
0.561228
0.341933
0.693262
0.702061
0.701127
0.313528
0.401777
0.677028
0.307461
0.700215
0.700758
0.708503
0.701919
0.284433
0.45343
0.63673
0.31947
0.711139
0.700094
0.472039
0.700852
0.254069
0.684474
0.693972
0.6658
0.700082
0.307669
0.322283
0.705909
0.705138
0.340499
0.353804
0.368357
0.321584
0.304475
0.297999
0.333707
0.351795
0.706045
0.265
0.312175
0.699004
0.538619
0.561017
0.373349
0.321704
0.70065
0.456861
0.523653
0.699989
0.361337
0.644008
0.563613
0.576039
0.696755
0.323026
0.705783
0.637642
0.354633
0.316327
0.42824
0.69494
0.577887
0.700813
0.68893
0.704903
0.698112
0.429801
0.705514
0.662318
0.701896
0.321481
0.695129
0.656601
0.422116
0.397752
0.256958
0.305517
0.290279
0.579526
0.662419
0.693474
0.313853
0.345809
0.700852
0.295473
0.704173
0.697823
0.707823
0.665719
0.705491
0.378243
0.309724
0.29266
0.58049
0.291819
0.704096
0.291283
0.693771
0.689219
0.705087
0.358023
0.446494
0.416012
0.705515
0.351499
0.316177
0.701446
0.697555
0.643097
0.687988
0.700373
0.692616
0.352278
0.593752
0.700116
0.474897
0.70561
0.704066
0.695961
0.390436
0.373854
0.701069
0.438877
0.627077
0.330514
0.684701
0.71032
0.41787
0.299218
0.690392
0.478133
0.701957
0.703831
0.349619
0.311495
0.561446
0.447824
0.42248
0.711481
0.699565
0.332466
0.708442
0.560665
0.694569
0.354083
0.578599
0.347728
0.705321
0.700607
0.693086
0.689805
0.560216
0.321142
0.364359
0.69981
0.328511
0.570949
0.328922
0.705702
0.296501
0.647293
0.700152
0.560289
0.354378
0.559989
0.562193
0.315869
0.683392
0.294258
0.700992
0.349756
0.306582
0.288
0.689438
0.706027
0.308024
0.310242