# vtk DataFile Version 1.0
unstructured grid
ascii
DATASET UNSTRUCTURED_GRID
points 13672 float
0.0796578 -0.059106 0
0.00128732 0.00159165 0
0.00227961 -0.00102548 0
0.0791586 -0.0598787 0
-0.0546216 0.01 0
0.000495206 0.025 0
0.0800549 -0.035 0
0.135172 -0.08 0
-0.0546216 -0.0451168 0
0.000495206 -0.0301168 0
0.0800549 -0.0901168 0
0.135172 -0.135117 0
-0.0546216 -0.0451168 -0.00551168
0.000495206 -0.0301168 -0.00551168
0.0800549 -0.0901168 -0.00551168
0.135172 -0.135117 -0.00551168
0.135172 -0.08 -0.00551168
0.0800549 -0.035 -0.00551168
0.000495206 0.025 -0.00551168
-0.0546216 0.01 -0.00551168
0.00128732 0.00159165 -0.00551168
0.00227961 -0.00102548 -0.00551168
0.0791586 -0.0598787 -0.00551168
0.0796578 -0.059106 -0.00551168
0.00165953 -0.000990923 0
0.00119576 -0.000874076 0
0.000866021 -0.000641801 0
0.000645147 -0.000349912 0
0.00052235 -1.7281e-05 0
0.00049972 0.000348016 0
0.000601632 0.000737716 0
0.000861774 0.0011403 0
0.00157235 0.00183217 0
0.00188647 0.00206725 0
0.00222612 0.00230203 0
0.00258713 0.00254351 0
0.00296826 0.00279524 0
0.00337118 0.00305664 0
0.00379785 0.00332658 0
0.00425045 0.00360349 0
0.00473139 0.00388521 0
0.0052432 0.00416895 0
0.0057881 0.00445204 0
0.00636753 0.00473281 0
0.00698281 0.00500961 0
0.00763526 0.00528058 0
0.00832616 0.00554366 0
0.00905691 0.00579603 0
0.00982918 0.00603333 0
0.0106445 0.00625033 0
0.0115038 0.00644128 0
0.0124073 0.00660297 0
0.0133543 0.00673414 0
0.0143444 0.00683382 0
0.0153769 0.00690031 0
0.0164512 0.00693173 0
0.0175666 0.00692547 0
0.0187219 0.00687822 0
0.0199156 0.00678477 0
0.0211454 0.00663864 0
0.0224084 0.00643275 0
0.0237018 0.00616676 0
0.0250249 0.00584739 0
0.026375 0.00547298 0
0.0277479 0.00503752 0
0.0291386 0.00453545 0
0.0305433 0.0039653 0
0.0319572 0.0033256 0
0.0333681 0.00260019 0
0.034775 0.00179799 0
0.0361793 0.000930615 0
0.0375798 3.12222e-06 0
0.0389689 -0.000988429 0
0.0403357 -0.00205109 0
0.041675 -0.00318283 0
0.0429849 -0.00437751 0
0.0442643 -0.00562904 0
0.0455126 -0.00693089 0
0.0467314 -0.00827518 0
0.0479204 -0.00965638 0
0.0490661 -0.0110799 0
0.0501515 -0.0125519 0
0.0511696 -0.0140695 0
0.0521492 -0.0156071 0
0.0531202 -0.0171411 0
0.0540851 -0.0186663 0
0.0550431 -0.0201798 0
0.0559923 -0.0216793 0
0.0569311 -0.0231626 0
0.0578582 -0.0246273 0
0.0587723 -0.0260715 0
0.0596721 -0.027493 0
0.0605563 -0.02889 0
0.0614241 -0.0302609 0
0.0622742 -0.0316042 0
0.063106 -0.0329183 0
0.0639186 -0.034202 0
0.0647113 -0.0354543 0
0.0654835 -0.0366743 0
0.0662345 -0.0378613 0
0.0669642 -0.0390145 0
0.0676726 -0.0401333 0
0.0683597 -0.0412172 0
0.0690246 -0.0422665 0
0.0696662 -0.0432819 0
0.0702841 -0.0442636 0
0.0708793 -0.0452111 0
0.0714538 -0.0461237 0
0.072009 -0.047001 0
0.0725452 -0.0478434 0
0.0730611 -0.0486524 0
0.073556 -0.0494294 0
0.0740291 -0.0501756 0
0.0744812 -0.0508916 0
0.0749138 -0.0515773 0
0.0753285 -0.0522331 0
0.0757266 -0.0528592 0
0.076109 -0.0534564 0
0.0764753 -0.0540264 0
0.0768243 -0.054571 0
0.0771553 -0.0550919 0
0.0774679 -0.0555901 0
0.0777617 -0.0560669 0
0.0780369 -0.056523 0
0.0782958 -0.0569578 0
0.0785421 -0.0573703 0
0.0787786 -0.0577603 0
0.0790073 -0.0581279 0
0.0792295 -0.058474 0
0.0794462 -0.0587995 0
0.0798803 -0.0594162 0
0.0800272 -0.0596588 0
0.0800357 -0.0598891 0
0.0799275 -0.0600784 0
0.0797205 -0.0601773 0
0.0794593 -0.0601051 0
0.0789155 -0.0596491 0
0.0786707 -0.0593963 0
0.0784111 -0.0591319 0
0.0781372 -0.0588542 0
0.0778566 -0.0585548 0
0.0775715 -0.0582308 0
0.0772803 -0.0578828 0
0.0769832 -0.0575099 0
0.0766822 -0.0571097 0
0.0763801 -0.0566796 0
0.0760759 -0.0562196 0
0.0757623 -0.0557337 0
0.0754359 -0.0552232 0
0.0750951 -0.0546879 0
0.0747379 -0.054128 0
0.0743626 -0.0535435 0
0.0739688 -0.0529338 0
0.0735559 -0.0522981 0
0.0731238 -0.0516357 0
0.0726718 -0.050946 0
0.0721991 -0.0502288 0
0.0717046 -0.049484 0
0.0711872 -0.0487117 0
0.0706461 -0.047912 0
0.0700804 -0.0470849 0
0.0694892 -0.0462308 0
0.0688718 -0.0453499 0
0.0682271 -0.0444431 0
0.0675544 -0.043511 0
0.0668527 -0.0425546 0
0.0661215 -0.0415748 0
0.06536 -0.040573 0
0.0645676 -0.0395504 0
0.0637439 -0.0385087 0
0.0628887 -0.0374493 0
0.062002 -0.0363741 0
0.0610838 -0.0352847 0
0.0601345 -0.0341831 0
0.0591547 -0.033071 0
0.0581456 -0.0319502 0
0.0571083 -0.0308224 0
0.0560444 -0.0296893 0
0.0549562 -0.028552 0
0.053845 -0.0274126 0
0.0527113 -0.0262746 0
0.051554 -0.0251427 0
0.0503724 -0.0240222 0
0.0491675 -0.0229164 0
0.047941 -0.0218282 0
0.0466955 -0.0207597 0
0.0454337 -0.0197126 0
0.0441592 -0.0186878 0
0.0428751 -0.0176863 0
0.0415841 -0.0167097 0
0.0402878 -0.0157609 0
0.0389879 -0.0148428 0
0.0376864 -0.0139575 0
0.0363853 -0.013107 0
0.0350871 -0.0122931 0
0.0337942 -0.0115164 0
0.0325095 -0.0107772 0
0.0312357 -0.0100756 0
0.0299758 -0.00941024 0
0.0287337 -0.00877784 0
0.0275126 -0.00817571 0
0.0263139 -0.00760375 0
0.0251376 -0.00706528 0
0.0239829 -0.0065649 0
0.0228537 -0.00609619 0
0.0217522 -0.00565563 0
0.0206795 -0.00524226 0
0.0196364 -0.00485507 0
0.0186233 -0.00449318 0
0.0176408 -0.00415577 0
0.016689 -0.00384204 0
0.0157682 -0.00355115 0
0.0148783 -0.00328218 0
0.0140192 -0.00303468 0
0.0131906 -0.00280795 0
0.0123925 -0.00260016 0
0.0116246 -0.00241012 0
0.0108864 -0.00223769 0
0.0101774 -0.00208212 0
0.00949701 -0.00194206 0
0.00884483 -0.0018163 0
0.0082202 -0.0017039 0
0.00762247 -0.00160391 0
0.00705097 -0.00151528 0
0.006505 -0.00143697 0
0.0059838 -0.00136806 0
0.00548662 -0.00130772 0
0.00501265 -0.00125519 0
0.00456114 -0.00120954 0
0.00413136 -0.00116914 0
0.00372257 -0.00113251 0
0.00333398 -0.00109853 0
0.00296466 -0.00106798 0
0.00261363 -0.0010431 0
-0.052721 -0.0445996 0
-0.0508204 -0.0440823 0
-0.0489199 -0.0435651 0
-0.0470193 -0.0430478 0
-0.0451187 -0.0425306 0
-0.0432181 -0.0420134 0
-0.0413175 -0.0414961 0
-0.039417 -0.0409789 0
-0.0375164 -0.0404616 0
-0.0356158 -0.0399444 0
-0.0337152 -0.0394271 0
-0.0318146 -0.0389099 0
-0.0299141 -0.0383927 0
-0.0280135 -0.0378754 0
-0.0261129 -0.0373582 0
-0.0242123 -0.0368409 0
-0.0223117 -0.0363237 0
-0.0204112 -0.0358065 0
-0.0185106 -0.0352892 0
-0.01661 -0.034772 0
-0.0147094 -0.0342547 0
-0.0128088 -0.0337375 0
-0.0109083 -0.0332202 0
-0.00900769 -0.032703 0
-0.00710711 -0.0321858 0
-0.00520653 -0.0316685 0
-0.00330595 -0.0311513 0
-0.00140537 -0.030634 0
0.00190689 -0.0299614 0
0.00332271 -0.0298498 0
0.00474133 -0.0297825 0
0.00616136 -0.0297597 0
0.0075814 -0.0297814 0
0.00900007 -0.0298477 0
0.010416 -0.0299583 0
0.0118278 -0.0301127 0
0.0132342 -0.0303103 0
0.0146339 -0.0305504 0
0.0160259 -0.0308322 0
0.0174091 -0.0311546 0
0.0187824 -0.0315166 0
0.020145 -0.031917 0
0.0214961 -0.0323546 0
0.0228351 -0.032828 0
0.0241613 -0.0333361 0
0.0254744 -0.0338774 0
0.0267738 -0.0344507 0
0.0280592 -0.0350545 0
0.0293306 -0.0356877 0
0.0305875 -0.0363488 0
0.0318301 -0.0370367 0
0.0330581 -0.0377501 0
0.0342717 -0.0384879 0
0.0354708 -0.0392489 0
0.0366556 -0.0400321 0
0.0378262 -0.0408363 0
0.0389828 -0.0416607 0
0.0401254 -0.0425042 0
0.0412543 -0.0433659 0
0.0423698 -0.0442451 0
0.043472 -0.0451408 0
0.0445612 -0.0460523 0
0.0456375 -0.0469789 0
0.0467013 -0.0479199 0
0.0477529 -0.0488746 0
0.0487923 -0.0498424 0
0.04982 -0.0508227 0
0.0508362 -0.051815 0
0.051841 -0.0528187 0
0.0528348 -0.0538333 0
0.0538178 -0.0548584 0
0.0547903 -0.0558935 0
0.0557524 -0.0569382 0
0.0567045 -0.0579922 0
0.0576467 -0.0590549 0
0.0585792 -0.0601261 0
0.0595024 -0.0612055 0
0.0604163 -0.0622926 0
0.0613212 -0.0633873 0
0.0622174 -0.0644891 0
0.0631049 -0.0655979 0
0.0639841 -0.0667134 0
0.064855 -0.0678353 0
0.0657179 -0.0689633 0
0.0665729 -0.0700974 0
0.0674202 -0.0712372 0
0.06826 -0.0723826 0
0.0690925 -0.0735333 0
0.0699178 -0.0746892 0
0.070736 -0.0758501 0
0.0715473 -0.0770159 0
0.0723518 -0.0781863 0
0.0731498 -0.0793612 0
0.0739412 -0.0805405 0
0.0747264 -0.081724 0
0.0755053 -0.0829116 0
0.0762781 -0.0841033 0
0.0770449 -0.0852987 0
0.0778059 -0.0864979 0
0.0785611 -0.0877007 0
0.0793108 -0.088907 0
0.0814681 -0.0912706 0
0.0828814 -0.0924245 0
0.0842946 -0.0935783 0
0.0857079 -0.0947322 0
0.0871211 -0.095886 0
0.0885344 -0.0970399 0
0.0899476 -0.0981937 0
0.0913609 -0.0993476 0
0.0927741 -0.100501 0
0.0941874 -0.101655 0
0.0956006 -0.102809 0
0.0970139 -0.103963 0
0.0984272 -0.105117 0
0.0998404 -0.106271 0
0.101254 -0.107424 0
0.102667 -0.108578 0
0.10408 -0.109732 0
0.105493 -0.110886 0
0.106907 -0.11204 0
0.10832 -0.113194 0
0.109733 -0.114348 0
0.111146 -0.115501 0
0.11256 -0.116655 0
0.113973 -0.117809 0
0.115386 -0.118963 0
0.116799 -0.120117 0
0.118213 -0.121271 0
0.119626 -0.122424 0
0.121039 -0.123578 0
0.122452 -0.124732 0
0.123866 -0.125886 0
0.125279 -0.12704 0
0.126692 -0.128194 0
0.128105 -0.129348 0
0.129519 -0.130501 0
0.130932 -0.131655 0
0.132345 -0.132809 0
0.133758 -0.133963 0
0.135172 -0.133216 0
0.135172 -0.131316 0
0.135172 -0.129415 0
0.135172 -0.127514 0
0.135172 -0.125614 0
0.135172 -0.123713 0
0.135172 -0.121813 0
0.135172 -0.119912 0
0.135172 -0.118012 0
0.135172 -0.116111 0
0.135172 -0.11421 0
0.135172 -0.11231 0
0.135172 -0.110409 0
0.135172 -0.108509 0
0.135172 -0.106608 0
0.135172 -0.104708 0
0.135172 -0.102807 0
0.135172 -0.100906 0
0.135172 -0.0990058 0
0.135172 -0.0971052 0
0.135172 -0.0952046 0
0.135172 -0.0933041 0
0.135172 -0.0914035 0
0.135172 -0.0895029 0
0.135172 -0.0876023 0
0.135172 -0.0857017 0
0.135172 -0.0838012 0
0.135172 -0.0819006 0
0.133758 -0.0788462 0
0.132345 -0.0776923 0
0.130932 -0.0765385 0
0.129519 -0.0753846 0
0.128105 -0.0742308 0
0.126692 -0.0730769 0
0.125279 -0.0719231 0
0.123866 -0.0707692 0
0.122452 -0.0696154 0
0.121039 -0.0684615 0
0.119626 -0.0673077 0
0.118213 -0.0661538 0
0.116799 -0.065 0
0.115386 -0.0638462 0
0.113973 -0.0626923 0
0.11256 -0.0615385 0
0.111146 -0.0603846 0
0.109733 -0.0592308 0
0.10832 -0.0580769 0
0.106907 -0.0569231 0
0.105493 -0.0557692 0
0.10408 -0.0546154 0
0.102667 -0.0534615 0
0.101254 -0.0523077 0
0.0998404 -0.0511538 0
0.0984272 -0.05 0
0.0970139 -0.0488462 0
0.0956006 -0.0476923 0
[...]
CELL_DATA 13116
SCALARS rho float
LOOKUP_TABLE default
0.5977
0.696833
0.46489
0.687987
0.690388
0.680199
0.363055
0.691201
0.5977
0.693052
0.357874
0.463856
0.690436
0.412595
0.431853
0.680219
0.5977
0.707138
0.680332
0.358306
0.5977
0.470039
0.437964
0.699997
0.5977
0.691251
0.693028
0.481588
0.5977
0.5977
0.678603
0.451322
0.5977
0.597689
0.366837
0.5977
0.596794
0.692492
0.680467
0.690564
0.680526
0.690656
0.5977
0.443161
0.679713
0.680324
0.691801
0.679744
0.459151
0.597704
0.68908
0.597697
0.383235
0.5977
0.5977
0.5977
0.440691
0.696649
0.597702
0.445416
0.415051
0.691034
0.6971
0.680451
0.680105
0.399176
0.68776
0.592746
0.687403
0.680273
0.431459
0.5977
0.47457
0.421393
0.598394
0.404441
0.670834
0.688511
0.358047
0.712737
0.678981
0.690464
0.697934
0.679914
0.692752
0.55153
0.371426
0.5977
0.691142
0.358224
0.459041
0.69487
0.697528
0.691536
0.5977
0.5977
0.5977
0.661304
0.643263
0.5977
0.5977
0.68907
0.680609
0.597159
0.688186
0.451064
0.52516
0.5977
0.46131
0.5977
0.5977
0.689461
0.5977
0.678474
0.710968
0.68819
0.387729
0.544454
0.68716
0.68888
0.596371
0.486621
0.687101
0.459545
0.691913
0.57909
0.375917
0.597661
0.452894
0.597707
0.687257
0.68527
0.583715
0.463033
0.575271
0.5977
0.558258
0.687988
0.5977
0.689283
0.592475
0.692108
0.597709
0.617497
0.700974
0.42466
0.365328
0.69039
0.690461
0.690423
0.597712
0.679803
0.679804
0.374588
0.692079
0.692282
0.445981
0.597699
0.66088
0.5977
0.700658
0.357852
0.695273
0.447032
0.492303
0.689766
0.691794
0.707958
0.365339
0.56444
0.549526
0.558153
0.42873
0.5977
0.688369
0.437694
0.444883
0.473411
0.689167
0.680372
0.358319
0.565391
0.5977
0.589648
0.680359
0.597699
0.374191
0.680432
0.68603
0.592361
0.597449
0.690198
0.680238
0.456935
0.689123
0.680338
0.695019
0.680097
0.691152
0.597517
0.597669
0.5977
0.597448
0.424053
0.688727
0.680192
0.597697
0.5977
0.436193
0.358341
0.401804
0.680344
0.450795
0.358587
0.358387
0.378251
0.537989
0.680402
0.691987
0.546593
0.434582
0.686323
0.5977
0.358288
0.597709
0.691568
0.700832
0.482136
0.68864
0.535004
0.690904
0.452108
0.680644
0.5977
0.626605
0.691119
0.68029
0.465824
0.577965
0.5977
0.572194
0.680389
0.558261
0.680483
0.691146
0.449246
0.688192
0.691579
0.646951
0.359429
0.462605
0.680287
0.686952
0.680669
0.685994
0.5977
0.659946
0.357925
0.47938
0.568588
0.434085
0.687351
0.695093
0.670825
0.361382
0.692028
0.38453
0.548962
0.688322
0.359572
0.691017
0.690063
0.552524
0.69647
0.463561
0.553823
0.683974
0.659671
0.687608
0.358033
0.365915
0.45606
0.5977
0.482918
0.476935
0.516138
0.504011
0.696529
0.390029
0.691917
0.689662
0.366563
0.358347
0.380384
0.574456
0.492059
0.5977
0.592028
0.689977
0.35886
0.680454
0.597699
0.483719
0.444633
0.68054
0.686775
0.680386
0.377908
0.680282
0.594458
0.685016
0.690279
0.689644
0.690357
0.458198
0.687966
0.413383
0.680279
0.691944
0.5977
0.358133
0.514482
0.691384
0.380691
0.692789
0.690883
0.55239
0.590187
0.69825
0.372168
0.692329
0.697555
0.410819
0.687405
0.549832
0.597704
0.693132
0.552015
0.597699
0.361258
0.701333
0.519107
0.680445
0.686663
0.694731
0.478422
0.527394
0.692513
0.372084
0.688006
0.686909
0.562524
0.558047
0.372151
0.456876
0.686643
0.597711
0.589333
0.369595
0.447598
0.688288
0.689734
0.362358
0.689381
0.398463
0.455674
0.689162
0.69277
0.5977
0.358321
0.687054
0.679816
0.680289
0.692055
0.691389
0.597711
0.549189
0.426777
0.358408
0.680342
0.35835
0.5977
0.551564
0.457916
0.524
0.5977
0.426102
0.368674
0.693524
0.464858
0.69465
0.5977
0.680228
0.5977
0.688589
0.460301
0.364532
0.597606
0.533873
0.686977
0.5977
0.680706
0.5977
0.697438
0.5977
0.690223
0.597702
0.5977
0.689825
0.715003
0.680275
0.57246
0.597706
0.5977
0.462098
0.592924
0.5977
0.381657
0.688524
0.55052
0.459118
0.358315
0.358403
0.368026
0.5977
0.398354
0.456406
0.679731
0.398894
0.5977
0.358369
0.680224
0.679824
0.502659
0.463327
0.686488
0.571481
0.358323
0.367574
0.358338
0.461229
0.364827
0.358299
0.484102
0.551519
0.358331
0.687186
0.516168
0.691853
0.586725
0.460049
0.576999
0.428144
0.35829
0.429754
0.691018
0.558067
0.5977
0.5977
0.394352
0.5977
0.691259
0.550107
0.590436
0.5977
0.5977
0.3639
0.63229
0.544933
0.69327
0.672522
0.460589
0.388283
0.686204
0.539579
0.551223
0.685301
0.524416
0.597699
0.70232
0.358384
0.440816
0.417736
0.597677
0.441067
0.40015
0.428498
0.411072
0.688979
0.690154
0.577415
0.5977
0.577878
0.688999
0.52936
0.3928
0.5977
0.461772
0.684217
0.501929
0.533168
0.581624
0.680405
0.691782
0.597707
0.552849
0.384374
0.59771
0.690931
0.68022
0.59771
0.690393
0.687323
0.358422
0.680124
0.597699
0.5977
0.512674
0.492206
0.678842
0.693753
0.5977
0.691754
0.691111
0.692179
0.700853
0.5977
0.680307
0.35842
0.683376
0.522492
0.442525
0.358529
0.688926
0.680288
0.509318
0.692282
0.5977
0.358083
0.680366
0.686401
0.688994
0.480108
0.388751
0.687976
0.358431
0.358335
0.437434
0.358443
0.680246
0.40594
0.687935
0.511246
0.693919
0.689543
0.684658
0.690132
0.358406
0.358378
0.680331
0.690848
0.642914
0.68914
0.69187
0.570519
0.36901
0.465162
0.680386
0.597699
0.358285
0.570327
0.457999
0.692972
0.681031
0.51123
0.474721
0.691713
0.554442
0.694142
0.5977
0.449162
0.534348
0.628723
0.563957
0.44927
0.691685
0.691705
0.680547
0.39346
0.557823
0.432427
0.614911
0.5977
0.358334
0.536151
0.478571
0.628169
0.463541
0.360432
0.547411
0.680463
0.68604
0.359377
0.476008
0.358415
0.680483
0.478975
0.680385
0.422399
0.5977
0.691627
0.586415
0.444654
0.440199
0.571515
0.466798
0.691584
0.385556
0.404569
0.680386
0.402359
0.680346
0.692385
0.650407
0.358194
0.684878
0.694779
0.695354
0.680398
0.692789
0.688667
0.439061
0.680156
0.54829
0.680245
0.358133
0.690799
0.597699
0.370219
0.680076
0.690914
0.376392
0.5977
0.458049
0.428047
0.679879
0.691282
0.459297
0.429929
0.358429
0.440114
0.692822
0.699908
0.389712
0.358335
0.68791
0.688553
0.5977
0.694699
0.679847
0.357906
0.694182
0.552913
0.689227
0.55221
0.5977
0.569615
0.684738
0.597716
0.597699
0.525508
0.47417
0.680661
0.5977
0.5977
0.694763
0.428112
0.682635
0.692002
0.538156
0.597702
0.694884
0.546169
0.680466
0.5977
0.513187
0.689514
0.5977
0.465741
0.686458
0.455185
0.690847
0.423369
0.680314
0.696233
0.47323
0.680376
0.695065
0.688584
0.5977
0.680248
0.597699
0.502047
0.59071
0.457494
0.41881
0.558151
0.59771
0.687023
0.690266
0.358154
0.505571
0.685316
0.691138
0.686662
0.690291
0.358336
0.718693
0.691162
0.35832
0.453474
0.68719
0.680169
0.691618
0.44597
0.5977
0.504768
0.68669
0.69132
0.680403
0.691379
0.358421
0.680168
0.691806
0.696942
0.691624
0.680179
0.54768
0.690618
0.358344
0.695721
0.692155
0.564783
0.701239
0.680383
0.689515
0.597726
0.569861
0.5977
0.5977
0.358471
0.358318
0.361041
0.358293
0.679768
0.681096
0.680256
0.50699
0.358217
0.687382
0.597701
0.408073
0.507788
0.569543
0.673966
0.679806
0.692137
0.695084
0.358363
0.358458
0.558044
0.459309
0.358515
0.389605
0.68032
0.501999
0.358223
0.5977
0.679827
0.689046
0.680393
0.680593
0.389546
0.414166
0.359527
0.5977
0.558143
0.454171
0.5911
0.696131
0.692778
0.680412
0.449142
0.358359
0.692095
0.358334
0.680177
0.695185
0.676027
0.459022
0.358294
0.691477
0.679434
0.5977
0.408009
0.69281
0.680409
0.5977
0.689989
0.690417
0.557422
0.690514
0.35832
0.680614
0.680193
0.590414
0.686649
0.558135
0.68973
0.555884
0.686921
0.402594
0.424811
0.358362
0.679997
0.597698
0.358346
0.685083
0.688301
0.462652
0.5977
0.508802
0.597661
0.5977
0.46384
0.691011
0.700176
0.358312
0.597327
0.679841
0.437869
0.691708
0.405792
0.448743
0.5977
0.5977
0.577021
0.680631
0.363399
0.694631
0.437486
0.453821
0.680316
0.358335
0.5977
0.456892
0.597702
0.5977
0.556187
0.691747
0.426437
0.408618
0.694277
0.5977
0.686595
0.597722
0.5977
0.680113
0.697281
0.5977
0.5977
0.689067
0.695089
0.687506
0.521372
0.358302
0.59667
0.689127
0.69471
0.548395
0.680525
0.5977
0.59668
0.458346
0.5977
0.671142
0.558273
0.623893
0.688078
0.682115
0.680574
0.677271
0.45248
0.5977
0.56894
0.690117
0.680094
0.503621
0.693128
0.689584
0.432409
0.456969
0.37863
0.558102
0.357896
0.5977
0.689593
0.5977
0.492128
0.695136
0.422385
0.5977
0.680316
0.680478
0.594532
0.680446
0.5977
0.678649
0.5977
0.680202
0.426046
0.680521
0.681768
0.5977
0.559548
0.684565
0.457594
0.428719
0.441565
0.68951
0.35827
0.552599
0.359613
0.691214
0.39066
0.569598
0.438044
0.693109
0.689789
0.5977
0.49363
0.5977
0.680427
0.358229
0.5977
0.690403
0.453787
0.5977
0.670661
0.691663
0.680168
0.461244
0.5977
0.687695
0.68032
0.698039
0.358307
0.565586
0.693803
0.558014
0.565866
0.558113
0.5977
0.685407
0.5977
0.69033
0.358286
0.424861
0.558116
0.690338
0.680469
0.40429
0.680371
0.5977
0.5977
0.422739
0.543347
0.689455
0.687838
0.597699
0.543952
0.680391
0.562466
0.361896
0.5977
0.692817
0.362504
0.459869
0.415594
0.687817
0.481762
0.358414
0.692272
0.597721
0.694552
0.597703
0.366804
0.366851
0.688989
0.426605
0.398883
0.679089
0.465489
0.532821
0.5977
0.69292
0.685209
0.358185
0.522804
0.35796
0.692958
0.453662
0.685341
0.400742
0.685221
0.692633
0.686856
0.689861
0.680128
0.690866
0.680041
0.689894
0.685943
0.402436
0.358181
0.678916
0.680459
0.577768
0.688545
0.5977
0.680472
0.590927
0.499207
0.68833
0.690936
0.678696
0.361081
0.680073
0.490771
0.681014
0.571263
0.705292
0.680485
0.465277
0.686739
0.358489
0.597649
0.69846
0.393869
0.597702
0.558207
0.692425
0.370875
0.679812
0.358147
0.459
0.458113
0.358327
0.648459
0.432143
0.589754
0.680463
0.543978
0.457707
0.569316
0.5977
0.5977
0.693707
0.358153
0.386223
0.360727
0.436287
0.491653
0.5977
0.690079
0.485455
0.680164
0.688772
0.412837
0.690761
0.597699
0.68047
0.358288
0.587707
0.679949
0.689989
0.690448
0.440742
0.685514
0.69066
0.680246
0.5977
0.680046
0.479151
0.458051
0.679947
0.595093
0.358358
0.680304
0.446774
0.597702
0.5977
0.690941
0.691194
0.457828
0.687912
0.568722
0.361087
0.637819
0.688592
0.691903
0.688277
0.58981
0.459423
0.690688
0.442983
0.576721
0.689793
0.633538
0.687278
0.359449
0.480055
0.691688
0.487934
0.687695
0.5977
0.559631
0.499276
0.68986
0.455579
0.680496
0.687533
0.650631
0.456116
0.42842
0.596511
0.5977
0.5977
0.592968
0.680316
0.693046
0.692022
0.558177
0.685554
0.372808
0.496094
0.688377
0.680148
0.699693
0.562259
0.420053
0.680126
0.425017
0.679914
0.5977
0.541262
0.686468
0.358243
0.692606
0.466404
0.691325
0.459846
0.681127
0.680339
0.461729
0.691934
0.5977
0.465468
0.680479
0.680268
0.5977
0.425149
0.543835
0.594816
0.694687
0.687189
0.512941
0.597699
0.685953
0.680424
0.493304
0.5977
0.697508
0.553289
0.680293
0.68033
0.502038
0.686049
0.666793
0.45914
0.5977
0.36276
0.595776
0.36678
0.449929
0.693913
0.358336
0.358372
0.422501
0.684177
0.695561
0.579597
0.680361
0.53886
0.68007
0.358158
0.698048
0.552216
0.680055
0.679902
0.60634
0.680453
0.597609
0.680319
0.680435
0.4801
0.5977
0.599463
0.5977
0.685372
0.572077
0.588568
0.690591
0.358346
0.5977
0.512567
0.680706
0.40096
0.45597
0.70041
0.680437
0.358409
0.690058
0.69638
0.558171
0.690087
0.611541
0.358257
0.690547
0.35843
0.449659
0.691494
0.694948
0.690811
0.691912
0.448399
0.370271
0.358183
0.69864
0.68042
0.540384
0.692944
0.397838
0.370448
0.40944
0.691548
0.550054
0.69087
0.686145
0.5977
0.691561
0.685829
0.5977
0.65753
0.549504
0.463067
0.358379
0.604087
0.581963
0.407953
0.5977
0.686524
0.625226
0.459871
0.597724
0.693932
0.490913
0.692563
0.596007
0.358565
0.680158
0.678684
0.35825
0.684635
0.395077
0.68704
0.693726
0.680253
0.428192
0.560392
0.597704
0.506357
0.551818
0.69107
0.510982
0.680279
0.687862
0.690729
0.698187
0.559625
0.679509
0.635374
0.680345
0.527366
0.688777
0.449119
0.419566
0.69449
0.679792
0.680193
0.466868
0.680376
0.5977
0.594802
0.390473
0.39693
0.358377
0.688937
0.360214
0.402227
0.46044
0.595836
0.399475
0.502525
0.551543
0.685372
0.358466
0.680379
0.680128
0.690128
0.374566
0.686103
0.5977
0.680222
0.544918
0.5977
0.36767
0.358296
0.679885
0.35837
0.5977
0.68611
0.55768
0.358476
0.515275
0.37317
0.59771
0.558324
0.469484
0.687775
0.681777
0.698958
0.358234
0.439939
0.520336
0.687197
0.358318
0.558193
0.5977
0.680143
0.694003
0.358037
0.5977
0.440745
0.681393
0.5977
0.691534
0.597704
0.5977
0.5977
0.699508
0.688684
0.359132
0.576849
0.405757
0.705395
0.597699
0.631783
0.35854
0.549069
0.692467
0.686101
0.680405
0.35836
0.690507
0.59771
0.597708
0.687683
0.463224
0.358352
0.503235
0.680452
0.680318
0.5977
0.688972
0.518854
0.692302
0.5977
0.680277
0.680219
0.692205
0.690954
0.680383
0.690986
0.692122
0.462478
0.686074
0.688348
0.680216
0.686185
0.679567
0.5977
0.358166
0.459523
0.64219
0.358455
0.552421
0.690619
0.418448
0.5977
0.686567
0.699618
0.67852
0.460282
0.690771
0.459039
0.415593
0.680344
0.684991
0.680389
0.381409
0.688823
0.680639
0.697796
0.680509
0.460622
0.680201
0.691859
0.67866
0.588506
0.699816
0.357999
0.686722
0.400926
0.358188
0.5977
0.566736
0.691133
0.696287
0.680182
0.453978
0.680056
0.583735
0.423203
0.69115
0.56847
0.358271
0.680562
0.46966
0.581431
0.597701
0.692729
0.691538
0.570499
0.5977
0.5977
0.680359
0.5977
0.691898
0.595723
0.688973
0.689035
0.5977
0.445448
0.357989
0.56418
0.688342
0.457407
0.5977
0.690195
0.5977
0.680386
0.5977
0.597623
0.677962
0.358341
0.690053
0.686279
0.5977
0.686833
0.691084
0.691616
0.680461
0.358254
0.411628
0.679831
0.597699
0.5977
0.688299
0.680329
0.680312
0.693645
0.69407
0.5977
0.691298
0.692034
0.413667
0.469511
0.404618
0.525282
0.554738
0.582341
0.5977
0.686128
0.679218
0.454073
0.679119
0.687395
0.386092
0.536013
0.561708
0.686769
0.467745
0.44864
0.438215
0.558189
0.691595
0.597743
0.372152
0.358499
0.460901
0.535796
0.358344
0.691694
0.679862
0.682733
0.359659
0.699565
0.5977
0.5977
0.508901
0.358351
0.690888
0.559161
0.358269
0.680234
0.358296
0.700289
0.461766
0.690354
0.360194
0.692892
0.689409
0.370185
0.597707
0.490363
0.690595
0.466349
0.5977
0.443414
0.597712
0.366431
0.5977
0.358234
0.680513
0.680226
0.5977
0.680208
0.513247
0.69738
0.680157
0.689183
0.5977
0.680218
0.35833
0.59771
0.406236
0.696845
0.500813
0.689762
0.597711
0.695529
0.691611
0.5977
0.690081
0.424618
0.41156
0.412828
0.597714
0.5977
0.680037
0.358629
0.47182
0.680349
0.538316
0.454319
0.5977
0.536502
0.35824
0.457598
0.690493
0.5977
0.5977
0.433335
0.696669
0.683719
0.455622
0.519064
0.691893
0.680563
0.658601
0.58451
0.545528
0.527707
0.371078
0.693
0.683836
0.597699
0.624859
0.440866
0.5977
0.358167
0.680291
0.689335
0.358292
0.484999
0.695185
0.5977
0.689503
0.691979
0.694802
0.690524
0.690093
0.38375
0.466879
0.41018
0.358152
0.5977
0.67382
0.5977
0.358341
0.358115
0.597723
0.458428
0.680255
0.693614
0.358318
0.510231
0.68651
0.449936
0.5977
0.693407
0.692941
0.680059
0.5977
0.358292
0.363799
0.689647
0.358307
0.594967
0.577262
0.680479
0.690136
0.496138
0.35857
0.558206
0.358234
0.686147
0.69732
0.358301
0.434703
0.387844
0.683061
0.390294
0.558176
0.686589
0.5977
0.453631
0.594057
0.68832
0.694757
0.359991
0.696176
0.617894
0.45943
0.686928
0.688278
0.358698
0.358245
0.69164
0.358228
0.358156
0.697601
0.525042
0.68038
0.597707
0.697491
0.589473
0.690284
0.687496
0.680359
0.358528
0.542566
0.698572
0.681337
0.559307
0.690892
0.519733
0.6867
0.691478
0.5977
0.5977
0.597719
0.571423
0.679498
0.689414
0.688892
0.689488
0.680084
0.553635
0.690014
0.558174
0.692628
0.691689
0.692746
0.558633
0.680368
0.447039
0.690547
0.476302
0.689782
0.686251
0.692494
0.690946
0.697964
0.427998
0.372657
0.509378
0.358738
0.69305
0.35857
0.358887
0.679467
0.448286
0.690276
0.368464
0.696739
0.685595
0.358392
0.537321
0.545222
0.68844
0.434158
0.680251
0.686601
0.37828
0.690494
0.597704
0.571291
0.476418
0.456554
0.58259
0.358249
0.690226
0.5977
0.496796
0.679817
0.680634
0.69497
0.35832
0.5977
0.445024
0.69955
0.680435
0.688078
0.358197
0.680229
0.688073
0.689644
0.557567
0.688091
0.358206
0.358425
0.691105
0.579736
0.692956
0.597715
0.358223
0.554307
0.690454
0.466478
0.451037
0.426179
0.5977
0.632183
0.686076
0.411358
0.5977
0.679956
0.59771
0.597704
0.537712
0.597702
0.35832
0.358289
0.679613
0.358438
0.358273
0.689403
0.688861
0.389509
0.707953
0.386266
0.553367
0.48608
0.691762
0.680418
0.701202
0.679997
0.445451
0.35828
0.454774
0.680232
0.691365
0.5977
0.597701
0.533125
0.507324
0.680381
0.358196
0.680314
0.532672
0.680484
0.591065
0.368641
0.451493
0.358456
0.358496
0.461956
0.698462
0.694496
0.359598
0.685972
0.5977
0.502835
0.425656
0.690209
0.358394
0.685583
0.547626
0.699533
0.5977
0.686246
0.646791
0.416798
0.693537
0.690228
0.689982
0.358194
0.689659
0.5977
0.54765
0.688256
0.626902
0.691142
0.695861
0.690289
0.691046
0.690123
0.680348
0.680361
0.358309
0.695129
0.358435
0.597719
0.691271
0.452972
0.693983
0.688125
0.466745
0.690332
0.358208
0.4592
0.691824
0.687285
0.688893
0.358229
0.695127
0.5977
0.486882
0.359912
0.692306
0.681589
0.535504
0.436735
0.689701
0.689645
0.358227
0.5977
0.689614
0.5977
0.381899
0.358231
0.451994
0.5977
0.461542
0.69653
0.708451
0.680283
0.5977
0.685696
0.358261
0.691373
0.5977
0.689347
0.597706
0.458774
0.359199
0.4452
0.700246
0.687421
0.546108
0.5977
0.52652
0.639228
0.688509
0.431351
0.593155
0.694673
0.5977
0.361694
0.364414
0.529195
0.687338
0.692871
0.5977
0.584724
0.686321
0.358294
0.5977
0.569114
0.680875
0.363519
0.5977
0.471226
0.688783
0.453133
0.680029
0.691747
0.430315
0.687056
0.597699
0.558269
0.597701
0.558174
0.689933
0.583069
0.680359
0.680452
0.68958
0.680002
0.56462
0.568407
0.397666
0.680431
0.441482
0.358237
0.454295
0.458131
0.358416
0.361101
0.689637
0.529791
0.406513
0.597339
0.687236
0.694585
0.594752
0.684402
0.603247
0.680093
0.469672
0.597701
0.687937
0.49813
0.446293
0.35827
0.5977
0.579608
0.358286
0.5977
0.450586
0.635657
0.576854
0.380263
0.567769
0.5977
0.531254
0.683314
0.433757
0.5977
0.533523
0.693128
0.541699
0.591886
0.559492
0.685112
0.597699
0.358217
0.692755
0.69064
0.4499
0.459481
0.680189
0.358425
0.69999
0.359578
0.597705
0.443232
0.687389
0.468337
0.689269
0.35832
0.689346
0.685889
0.689585
0.557365
0.396308
0.446367
0.594805
0.692157
0.679229
0.690439
0.5977
0.467837
0.689898
0.538749
0.691455
0.686187
0.593779
0.497809
0.693808
0.680397
0.441837
0.680729
0.692637
0.692542
0.697586
0.43702
0.5977
0.358484
0.691844
0.464218
0.6801
0.690386
0.692957
0.688942
0.500763
0.688584
0.358344
0.359771
0.682355
0.558209
0.5977
0.679587
0.554977
0.358227
0.70339
0.692649
0.690624
0.458949
0.563319
0.667319
0.35926
0.686897
0.690626
0.694495
0.692639
0.497609
0.596985
0.5977
0.433851
0.691335
0.690443
0.597705
0.691559
0.495322
0.69057
0.700864
0.5977
0.691744
0.364549
0.458276
0.680527
0.695887
0.458921
0.520871
0.458813
0.44339
0.405448
0.462422
0.493557
0.358376
0.680153
0.43991
0.382352
0.688407
0.5977
0.558165
0.545856
0.358584
0.680836
0.594959
0.5977
0.692231
0.538093
0.5977
0.680462
0.5977
0.699227
0.432969
0.686247
0.680457
0.38879
0.35838
0.592303
0.687505
0.5977
0.690698
0.680237
0.682542
0.695874
0.589893
0.686573
0.68044
0.692707
0.358046
0.687749
0.683043
0.581069
0.560198
0.386813
0.439724
0.406765
0.5977
0.597672
0.679894
0.358309
0.541208
0.689593
0.46064
0.686829
0.680498
0.69461
0.5977
0.685921
0.49351
0.441977
0.440837
0.5977
0.460394
0.679692
0.442066
0.679959
0.680322
0.686142
0.516647
0.592391
0.576102
0.685859
0.424277
0.358201
0.690742
0.698483
0.597705
0.680141
0.692651
0.698601
0.358277
0.5977
0.690872
0.592369
0.685766
0.688184
0.696744
0.554743
0.545441
0.690591
0.575671
0.5977
0.358326
0.696868
0.693812
0.592435
0.462042
0.699692
0.597291
0.689925
0.686901
0.358258
0.358317
0.668679
0.597698
0.596834
0.692278
0.692119
0.47454
0.693549
0.67285
0.691669
0.358333
0.5977
0.358255
0.69206
0.689286
0.697058
0.679344
0.676712
0.504995
0.537215
0.680963
0.358395
0.5977
0.489966
0.686047
0.420859
0.5977
0.691313
0.665012
0.35819
0.558137
0.592949
0.358114
0.699527
0.456062
0.690222
0.358227
0.363924
0.43008
0.680012
0.688141
0.517073
0.507736
0.690626
0.690091
0.574202
0.720994
0.358446
0.5977
0.358326
0.679867
0.358249
0.593341
0.691482
0.477609
0.597697
0.361808
0.680279
0.397905
0.358421
0.693051
0.45788
0.680171
0.596938
0.427908
0.690898
0.677932
0.692224
0.593534
0.48782
0.5977
0.455363
0.358127
0.691916
0.680387
0.685777
0.358384
0.536302
0.5977
0.692442
0.597715
0.692993
0.5977
0.69066
0.521229
0.691596
0.690213
0.5977
0.689059
0.460866