# vtk DataFile Version 1.0
unstructured grid
ascii
DATASET UNSTRUCTURED_GRID
points 13672 float
0.0796578 -0.059106 0
0.00128732 0.00159165 0
0.00227961 -0.00102548 0
0.0791586 -0.0598787 0
-0.0546216 0.01 0
0.000495206 0.025 0
0.0800549 -0.035 0
0.135172 -0.08 0
-0.0546216 -0.0451168 0
0.000495206 -0.0301168 0
0.0800549 -0.0901168 0
0.135172 -0.135117 0
-0.0546216 -0.0451168 -0.00551168
0.000495206 -0.0301168 -0.00551168
0.0800549 -0.0901168 -0.00551168
0.135172 -0.135117 -0.00551168
0.135172 -0.08 -0.00551168
0.0800549 -0.035 -0.00551168
0.000495206 0.025 -0.00551168
-0.0546216 0.01 -0.00551168
0.00128732 0.00159165 -0.00551168
0.00227961 -0.00102548 -0.00551168
0.0791586 -0.0598787 -0.00551168
0.0796578 -0.059106 -0.00551168
0.00165953 -0.000990923 0
0.00119576 -0.000874076 0
0.000866021 -0.000641801 0
0.000645147 -0.000349912 0
0.00052235 -1.7281e-05 0
0.00049972 0.000348016 0
0.000601632 0.000737716 0
0.000861774 0.0011403 0
0.00157235 0.00183217 0
0.00188647 0.00206725 0
0.00222612 0.00230203 0
0.00258713 0.00254351 0
0.00296826 0.00279524 0
0.00337118 0.00305664 0
0.00379785 0.00332658 0
0.00425045 0.00360349 0
0.00473139 0.00388521 0
0.0052432 0.00416895 0
0.0057881 0.00445204 0
0.00636753 0.00473281 0
0.00698281 0.00500961 0
0.00763526 0.00528058 0
0.00832616 0.00554366 0
0.00905691 0.00579603 0
0.00982918 0.00603333 0
0.0106445 0.00625033 0
0.0115038 0.00644128 0
0.0124073 0.00660297 0
0.0133543 0.00673414 0
0.0143444 0.00683382 0
0.0153769 0.00690031 0
0.0164512 0.00693173 0
0.0175666 0.00692547 0
0.0187219 0.00687822 0
0.0199156 0.00678477 0
0.0211454 0.00663864 0
0.0224084 0.00643275 0
0.0237018 0.00616676 0
0.0250249 0.00584739 0
0.026375 0.00547298 0
0.0277479 0.00503752 0
0.0291386 0.00453545 0
0.0305433 0.0039653 0
0.0319572 0.0033256 0
0.0333681 0.00260019 0
0.034775 0.00179799 0
0.0361793 0.000930615 0
0.0375798 3.12222e-06 0
0.0389689 -0.000988429 0
0.0403357 -0.00205109 0
0.041675 -0.00318283 0
0.0429849 -0.00437751 0
0.0442643 -0.00562904 0
0.0455126 -0.00693089 0
0.0467314 -0.00827518 0
0.0479204 -0.00965638 0
0.0490661 -0.0110799 0
0.0501515 -0.0125519 0
0.0511696 -0.0140695 0
0.0521492 -0.0156071 0
0.0531202 -0.0171411 0
0.0540851 -0.0186663 0
0.0550431 -0.0201798 0
0.0559923 -0.0216793 0
0.0569311 -0.0231626 0
0.0578582 -0.0246273 0
0.0587723 -0.0260715 0
0.0596721 -0.027493 0
0.0605563 -0.02889 0
0.0614241 -0.0302609 0
0.0622742 -0.0316042 0
0.063106 -0.0329183 0
0.0639186 -0.034202 0
0.0647113 -0.0354543 0
0.0654835 -0.0366743 0
0.0662345 -0.0378613 0
0.0669642 -0.0390145 0
0.0676726 -0.0401333 0
0.0683597 -0.0412172 0
0.0690246 -0.0422665 0
0.0696662 -0.0432819 0
0.0702841 -0.0442636 0
0.0708793 -0.0452111 0
0.0714538 -0.0461237 0
0.072009 -0.047001 0
0.0725452 -0.0478434 0
0.0730611 -0.0486524 0
0.073556 -0.0494294 0
0.0740291 -0.0501756 0
0.0744812 -0.0508916 0
0.0749138 -0.0515773 0
0.0753285 -0.0522331 0
0.0757266 -0.0528592 0
0.076109 -0.0534564 0
0.0764753 -0.0540264 0
0.0768243 -0.054571 0
0.0771553 -0.0550919 0
0.0774679 -0.0555901 0
0.0777617 -0.0560669 0
0.0780369 -0.056523 0
0.0782958 -0.0569578 0
0.0785421 -0.0573703 0
0.0787786 -0.0577603 0
0.0790073 -0.0581279 0
0.0792295 -0.058474 0
0.0794462 -0.0587995 0
0.0798803 -0.0594162 0
0.0800272 -0.0596588 0
0.0800357 -0.0598891 0
0.0799275 -0.0600784 0
0.0797205 -0.0601773 0
0.0794593 -0.0601051 0
0.0789155 -0.0596491 0
0.0786707 -0.0593963 0
0.0784111 -0.0591319 0
0.0781372 -0.0588542 0
0.0778566 -0.0585548 0
0.0775715 -0.0582308 0
0.0772803 -0.0578828 0
0.0769832 -0.0575099 0
0.0766822 -0.0571097 0
0.0763801 -0.0566796 0
0.0760759 -0.0562196 0
0.0757623 -0.0557337 0
0.0754359 -0.0552232 0
0.0750951 -0.0546879 0
0.0747379 -0.054128 0
0.0743626 -0.0535435 0
0.0739688 -0.0529338 0
0.0735559 -0.0522981 0
0.0731238 -0.0516357 0
0.0726718 -0.050946 0
0.0721991 -0.0502288 0
0.0717046 -0.049484 0
0.0711872 -0.0487117 0
0.0706461 -0.047912 0
0.0700804 -0.0470849 0
0.0694892 -0.0462308 0
0.0688718 -0.0453499 0
0.0682271 -0.0444431 0
0.0675544 -0.043511 0
0.0668527 -0.0425546 0
0.0661215 -0.0415748 0
0.06536 -0.040573 0
0.0645676 -0.0395504 0
0.0637439 -0.0385087 0
0.0628887 -0.0374493 0
0.062002 -0.0363741 0
0.0610838 -0.0352847 0
0.0601345 -0.0341831 0
0.0591547 -0.033071 0
0.0581456 -0.0319502 0
0.0571083 -0.0308224 0
0.0560444 -0.0296893 0
0.0549562 -0.028552 0
0.053845 -0.0274126 0
0.0527113 -0.0262746 0
0.051554 -0.0251427 0
0.0503724 -0.0240222 0
0.0491675 -0.0229164 0
0.047941 -0.0218282 0
0.0466955 -0.0207597 0
0.0454337 -0.0197126 0
0.0441592 -0.0186878 0
0.0428751 -0.0176863 0
0.0415841 -0.0167097 0
0.0402878 -0.0157609 0
0.0389879 -0.0148428 0
0.0376864 -0.0139575 0
0.0363853 -0.013107 0
0.0350871 -0.0122931 0
0.0337942 -0.0115164 0
0.0325095 -0.0107772 0
0.0312357 -0.0100756 0
0.0299758 -0.00941024 0
0.0287337 -0.00877784 0
0.0275126 -0.00817571 0
0.0263139 -0.00760375 0
0.0251376 -0.00706528 0
0.0239829 -0.0065649 0
0.0228537 -0.00609619 0
0.0217522 -0.00565563 0
0.0206795 -0.00524226 0
0.0196364 -0.00485507 0
0.0186233 -0.00449318 0
0.0176408 -0.00415577 0
0.016689 -0.00384204 0
0.0157682 -0.00355115 0
0.0148783 -0.00328218 0
0.0140192 -0.00303468 0
0.0131906 -0.00280795 0
0.0123925 -0.00260016 0
0.0116246 -0.00241012 0
0.0108864 -0.00223769 0
0.0101774 -0.00208212 0
0.00949701 -0.00194206 0
0.00884483 -0.0018163 0
0.0082202 -0.0017039 0
0.00762247 -0.00160391 0
0.00705097 -0.00151528 0
0.006505 -0.00143697 0
0.0059838 -0.00136806 0
0.00548662 -0.00130772 0
0.00501265 -0.00125519 0
0.00456114 -0.00120954 0
0.00413136 -0.00116914 0
0.00372257 -0.00113251 0
0.00333398 -0.00109853 0
0.00296466 -0.00106798 0
0.00261363 -0.0010431 0
-0.052721 -0.0445996 0
-0.0508204 -0.0440823 0
-0.0489199 -0.0435651 0
-0.0470193 -0.0430478 0
-0.0451187 -0.0425306 0
-0.0432181 -0.0420134 0
-0.0413175 -0.0414961 0
-0.039417 -0.0409789 0
-0.0375164 -0.0404616 0
-0.0356158 -0.0399444 0
-0.0337152 -0.0394271 0
-0.0318146 -0.0389099 0
-0.0299141 -0.0383927 0
-0.0280135 -0.0378754 0
-0.0261129 -0.0373582 0
-0.0242123 -0.0368409 0
-0.0223117 -0.0363237 0
-0.0204112 -0.0358065 0
-0.0185106 -0.0352892 0
-0.01661 -0.034772 0
-0.0147094 -0.0342547 0
-0.0128088 -0.0337375 0
-0.0109083 -0.0332202 0
-0.00900769 -0.032703 0
-0.00710711 -0.0321858 0
-0.00520653 -0.0316685 0
-0.00330595 -0.0311513 0
-0.00140537 -0.030634 0
0.00190689 -0.0299614 0
0.00332271 -0.0298498 0
0.00474133 -0.0297825 0
0.00616136 -0.0297597 0
0.0075814 -0.0297814 0
0.00900007 -0.0298477 0
0.010416 -0.0299583 0
0.0118278 -0.0301127 0
0.0132342 -0.0303103 0
0.0146339 -0.0305504 0
0.0160259 -0.0308322 0
0.0174091 -0.0311546 0
0.0187824 -0.0315166 0
0.020145 -0.031917 0
0.0214961 -0.0323546 0
0.0228351 -0.032828 0
0.0241613 -0.0333361 0
0.0254744 -0.0338774 0
0.0267738 -0.0344507 0
0.0280592 -0.0350545 0
0.0293306 -0.0356877 0
0.0305875 -0.0363488 0
0.0318301 -0.0370367 0
0.0330581 -0.0377501 0
0.0342717 -0.0384879 0
0.0354708 -0.0392489 0
0.0366556 -0.0400321 0
0.0378262 -0.0408363 0
0.0389828 -0.0416607 0
0.0401254 -0.0425042 0
0.0412543 -0.0433659 0
0.0423698 -0.0442451 0
0.043472 -0.0451408 0
0.0445612 -0.0460523 0
0.0456375 -0.0469789 0
0.0467013 -0.0479199 0
0.0477529 -0.0488746 0
0.0487923 -0.0498424 0
0.04982 -0.0508227 0
0.0508362 -0.051815 0
0.051841 -0.0528187 0
0.0528348 -0.0538333 0
0.0538178 -0.0548584 0
0.0547903 -0.0558935 0
0.0557524 -0.0569382 0
0.0567045 -0.0579922 0
0.0576467 -0.0590549 0
0.0585792 -0.0601261 0
0.0595024 -0.0612055 0
0.0604163 -0.0622926 0
0.0613212 -0.0633873 0
0.0622174 -0.0644891 0
0.0631049 -0.0655979 0
0.0639841 -0.0667134 0
0.064855 -0.0678353 0
0.0657179 -0.0689633 0
0.0665729 -0.0700974 0
0.0674202 -0.0712372 0
0.06826 -0.0723826 0
0.0690925 -0.0735333 0
0.0699178 -0.0746892 0
0.070736 -0.0758501 0
0.0715473 -0.0770159 0
0.0723518 -0.0781863 0
0.0731498 -0.0793612 0
0.0739412 -0.0805405 0
0.0747264 -0.081724 0
0.0755053 -0.0829116 0
0.0762781 -0.0841033 0
0.0770449 -0.0852987 0
0.0778059 -0.0864979 0
0.0785611 -0.0877007 0
0.0793108 -0.088907 0
0.0814681 -0.0912706 0
0.0828814 -0.0924245 0
0.0842946 -0.0935783 0
0.0857079 -0.0947322 0
0.0871211 -0.095886 0
0.0885344 -0.0970399 0
0.0899476 -0.0981937 0
0.0913609 -0.0993476 0
0.0927741 -0.100501 0
0.0941874 -0.101655 0
0.0956006 -0.102809 0
0.0970139 -0.103963 0
0.0984272 -0.105117 0
0.0998404 -0.106271 0
0.101254 -0.107424 0
0.102667 -0.108578 0
0.10408 -0.109732 0
0.105493 -0.110886 0
0.106907 -0.11204 0
0.10832 -0.113194 0
0.109733 -0.114348 0
0.111146 -0.115501 0
0.11256 -0.116655 0
0.113973 -0.117809 0
0.115386 -0.118963 0
0.116799 -0.120117 0
0.118213 -0.121271 0
0.119626 -0.122424 0
0.121039 -0.123578 0
0.122452 -0.124732 0
0.123866 -0.125886 0
0.125279 -0.12704 0
0.126692 -0.128194 0
0.128105 -0.129348 0
0.129519 -0.130501 0
0.130932 -0.131655 0
0.132345 -0.132809 0
0.133758 -0.133963 0
0.135172 -0.133216 0
0.135172 -0.131316 0
0.135172 -0.129415 0
0.135172 -0.127514 0
0.135172 -0.125614 0
0.135172 -0.123713 0
0.135172 -0.121813 0
0.135172 -0.119912 0
0.135172 -0.118012 0
0.135172 -0.116111 0
0.135172 -0.11421 0
0.135172 -0.11231 0
0.135172 -0.110409 0
0.135172 -0.108509 0
0.135172 -0.106608 0
0.135172 -0.104708 0
0.135172 -0.102807 0
0.135172 -0.100906 0
0.135172 -0.0990058 0
0.135172 -0.0971052 0
0.135172 -0.0952046 0
0.135172 -0.0933041 0
0.135172 -0.0914035 0
0.135172 -0.0895029 0
0.135172 -0.0876023 0
0.135172 -0.0857017 0
0.135172 -0.0838012 0
0.135172 -0.0819006 0
0.133758 -0.0788462 0
0.132345 -0.0776923 0
0.130932 -0.0765385 0
0.129519 -0.0753846 0
0.128105 -0.0742308 0
0.126692 -0.0730769 0
0.125279 -0.0719231 0
0.123866 -0.0707692 0
0.122452 -0.0696154 0
0.121039 -0.0684615 0
0.119626 -0.0673077 0
0.118213 -0.0661538 0
0.116799 -0.065 0
0.115386 -0.0638462 0
0.113973 -0.0626923 0
0.11256 -0.0615385 0
0.111146 -0.0603846 0
0.109733 -0.0592308 0
0.10832 -0.0580769 0
0.106907 -0.0569231 0
0.105493 -0.0557692 0
0.10408 -0.0546154 0
0.102667 -0.0534615 0
0.101254 -0.0523077 0
0.0998404 -0.0511538 0
0.0984272 -0.05 0
0.0970139 -0.0488462 0
0.0956006 -0.0476923 0
[...]
CELL_DATA 13116
SCALARS rho float
LOOKUP_TABLE default
0.62222
0.69266
0.328784
0.703817
0.707874
0.685432
0.341538
0.703606
0.566347
0.708811
0.344814
0.299261
0.707838
0.339994
0.3236
0.685453
0.62405
0.713276
0.69152
0.345439
0.615825
0.332253
0.329625
0.71256
0.705816
0.695351
0.708909
0.33261
0.760002
0.71193
0.573859
0.311821
0.590619
0.466879
0.336868
0.61956
0.704562
0.691492
0.687327
0.697868
0.691219
0.703594
0.504028
0.328218
0.690987
0.691563
0.690499
0.693067
0.332412
0.550548
0.701337
0.497145
0.345144
0.61776
0.590544
0.632825
0.328837
0.714959
0.562037
0.327885
0.338381
0.706458
0.691601
0.686022
0.59324
0.338438
0.695136
0.708519
0.694179
0.634772
0.323268
0.607673
0.332209
0.333289
0.562733
0.326406
0.695899
0.696216
0.349593
0.714524
0.701264
0.692753
0.713046
0.69314
0.690596
0.437158
0.344761
0.722651
0.691402
0.354103
0.316036
0.692932
0.712175
0.699266
0.706709
0.679058
0.710728
0.556849
0.562052
0.675335
0.719228
0.685094
0.690937
0.415743
0.688358
0.309857
0.394109
0.53866
0.329363
0.73997
0.56316
0.68997
0.673411
0.704366
0.714184
0.69611
0.343846
0.398775
0.695274
0.697804
0.711595
0.335263
0.694006
0.315327
0.699438
0.430579
0.344699
0.52626
0.329472
0.550155
0.695246
0.696015
0.47233
0.332283
0.454793
0.673725
0.560826
0.694808
0.719132
0.698454
0.69314
0.690921
0.528393
0.693181
0.692046
0.325444
0.336418
0.692161
0.704829
0.702039
0.560006
0.693076
0.692939
0.331736
0.712127
0.690369
0.326877
0.717868
0.560872
0.723329
0.712772
0.347272
0.714211
0.328037
0.336042
0.705877
0.696921
0.713394
0.338273
0.441912
0.418257
0.560895
0.323407
0.511994
0.695305
0.328762
0.325835
0.33235
0.689865
0.691702
0.343406
0.424129
0.585447
0.704614
0.691769
0.562568
0.335269
0.689381
0.687813
0.455962
0.698013
0.691546
0.651264
0.324053
0.68949
0.693134
0.712096
0.689648
0.691344
0.376455
0.417993
0.731704
0.519984
0.333485
0.697565
0.692473
0.505344
0.694724
0.323382
0.342816
0.32755
0.694277
0.326567
0.347896
0.351261
0.33109
0.388282
0.689778
0.698753
0.431719
0.329255
0.695067
0.558472
0.343484
0.523183
0.707365
0.69213
0.333103
0.695177
0.411206
0.704134
0.313433
0.663199
0.60298
0.559658
0.689546
0.669913
0.335498
0.426558
0.723556
0.561041
0.692957
0.561567
0.684251
0.703043
0.326611
0.695545
0.710647
0.561107
0.337192
0.33368
0.692376
0.694947
0.628146
0.694752
0.615764
0.719466
0.346382
0.341815
0.383194
0.32264
0.687059
0.712269
0.69537
0.346454
0.690311
0.337759
0.425511
0.688745
0.335861
0.693873
0.703183
0.561019
0.714652
0.33453
0.56079
0.700172
0.557936
0.694792
0.349401
0.34339
0.324765
0.66914
0.334107
0.33727
0.382111
0.360376
0.691743
0.340797
0.690347
0.705102
0.339088
0.344106
0.338465
0.436531
0.33244
0.72102
0.68434
0.689784
0.336644
0.693278
0.615101
0.337541
0.327445
0.68537
0.694839
0.689596
0.334889
0.693276
0.425457
0.695955
0.70343
0.700651
0.703479
0.324393
0.694931
0.326131
0.688696
0.707
0.722362
0.349989
0.379443
0.709578
0.33971
0.691643
0.706422
0.359688
0.716513
0.713277
0.340486
0.690526
0.712208
0.332217
0.695526
0.43659
0.554858
0.702919
0.441215
0.717478
0.345887
0.71316
0.385225
0.689011
0.683832
0.711375
0.331965
0.390662
0.690508
0.331837
0.697126
0.688597
0.419223
0.559203
0.334044
0.327311
0.695803
0.568952
0.704432
0.343228
0.327296
0.695768
0.705191
0.33746
0.700986
0.341427
0.318346
0.697271
0.702886
0.552341
0.356948
0.694943
0.581504
0.686144
0.690573
0.700496
0.564037
0.343821
0.323066
0.343643
0.68652
0.343949
0.586004
0.363196
0.32177
0.387604
0.558596
0.137399
0.332816
0.690813
0.313308
0.713952
0.748675
0.691774
0.722672
0.695275
0.328033
0.34323
0.382372
0.348144
0.696711
0.664231
0.691246
0.755831
0.692217
0.702352
0.692007
0.695719
0.711296
0.698255
0.714668
0.685516
0.386776
0.504495
0.618552
0.329447
0.683177
0.631563
0.345555
0.695604
0.560807
0.324947
0.347583
0.351371
0.336063
0.727577
0.325479
0.324233
0.69465
0.336761
0.603831
0.352814
0.687946
0.698905
0.334619
0.331662
0.69589
0.435874
0.353606
0.336715
0.352923
0.32915
0.342486
0.347694
0.33679
0.427016
0.35131
0.684541
0.338917
0.690004
0.360231
0.313995
0.479341
0.307057
0.353837
0.30583
0.689472
0.426395
0.725147
0.550869
0.338076
0.696754
0.691318
0.434193
0.716804
0.701613
0.700528
0.341498
0.559693
0.401444
0.710774
0.567093
0.327611
0.337029
0.687387
0.349403
0.439449
0.685008
0.392338
0.718145
0.692304
0.343286
0.324374
0.323361
0.50641
0.326345
0.338366
0.323113
0.32736
0.704829
0.7052
0.44033
0.707667
0.456017
0.689524
0.380588
0.325927
0.571414
0.32796
0.694353
0.351597
0.395757
0.469805
0.690916
0.695151
0.583559
0.357719
0.338202
0.518916
0.70353
0.667939
0.519885
0.689062
0.687058
0.351546
0.698926
0.598538
0.723711
0.366443
0.332418
0.703621
0.712049
0.724114
0.707506
0.691617
0.697118
0.713203
0.723307
0.691615
0.346408
0.690829
0.389689
0.324845
0.34935
0.704547
0.692402
0.372639
0.690248
0.732379
0.350158
0.684139
0.694787
0.699315
0.332322
0.326939
0.696459
0.354511
0.352977
0.292279
0.351598
0.694118
0.334605
0.703716
0.338052
0.692879
0.699563
0.694205
0.706077
0.354956
0.344511
0.692953
0.70458
0.700247
0.705053
0.711171
0.473302
0.340552
0.328569
0.692906
0.562901
0.351196
0.437531
0.321041
0.701953
0.689237
0.366817
0.333799
0.689997
0.445598
0.690851
0.725847
0.329459
0.409564
0.698767
0.56074
0.32805
0.693928
0.697924
0.692722
0.327181
0.561755
0.329997
0.562012
0.724647
0.357333
0.384923
0.33693
0.559797
0.32982
0.348663
0.400337
0.685362
0.698364
0.348882
0.338794
0.352629
0.684168
0.333477
0.692866
0.330701
0.602045
0.707441
0.362648
0.328314
0.329102
0.475801
0.328898
0.695461
0.333464
0.323535
0.687467
0.327952
0.694165
0.691718
0.559526
0.348596
0.694416
0.713083
0.712374
0.693041
0.701497
0.696875
0.303937
0.64558
0.434177
0.693757
0.348327
0.703126
0.539412
0.337578
0.569306
0.700051
0.329944
0.69886
0.316526
0.322723
0.694481
0.689714
0.319495
0.313814
0.349336
0.294537
0.701885
0.71248
0.327757
0.341712
0.697201
0.695013
0.60352
0.713398
0.689116
0.347238
0.711181
0.421723
0.700232
0.398918
0.668756
0.457924
0.694782
0.704406
0.604666
0.376918
0.33105
0.689856
0.763377
0.611559
0.713693
0.323152
0.700395
0.712665
0.41361
0.501626
0.713132
0.360637
0.601737
0.722868
0.376706
0.698942
0.707232
0.32894
0.698997
0.324648
0.691248
0.326296
0.694143
0.691727
0.330778
0.685215
0.714074
0.696941
0.73013
0.697833
0.598967
0.349536
0.421528
0.312914
0.334181
0.558201
0.535752
0.694191
0.701685
0.345962
0.341546
0.697962
0.706958
0.696179
0.703292
0.348848
0.714376
0.71042
0.345882
0.312183
0.695441
0.692076
0.690087
0.296638
0.659109
0.335221
0.69938
0.691701
0.662952
0.692784
0.351292
0.694449
0.69023
0.712495
0.689852
0.691345
0.4337
0.698641
0.342162
0.690631
0.709386
0.440165
0.692348
0.678977
0.699323
0.435841
0.406248
0.602084
0.725549
0.354133
0.357673
0.335243
0.351127
0.693535
0.700466
0.678301
0.361422
0.350186
0.694092
0.717871
0.335228
0.342855
0.443365
0.700952
0.689621
0.690708
0.714204
0.343661
0.354268
0.558672
0.314679
0.347508
0.331968
0.689754
0.334901
0.355143
0.619741
0.693383
0.689791
0.68546
0.689339
0.342431
0.323696
0.336398
0.560866
0.42858
0.314888
0.705636
0.715907
0.690446
0.692136
0.30471
0.349976
0.707858
0.351093
0.691218
0.691587
0.561901
0.319665
0.352919
0.691649
0.574406
0.647519
0.334517
0.690689
0.685913
0.615179
0.701581
0.703285
0.559494
0.689057
0.348824
0.689266
0.608521
0.691801
0.699709
0.558442
0.690207
0.561944
0.694502
0.323891
0.321808
0.350328
0.573544
0.543466
0.351433
0.697534
0.697386
0.297975
0.702516
0.335674
0.699274
0.545159
0.336037
0.706516
0.712409
0.351433
0.519468
0.579637
0.330118
0.698184
0.338491
0.312414
0.699755
0.718109
0.477481
0.691002
0.334429
0.713612
0.323586
0.307045
0.694107
0.351166
0.686566
0.320679
0.700421
0.676667
0.561587
0.695526
0.32355
0.322842
0.687934
0.51185
0.696346
0.485439
0.659102
0.685647
0.712574
0.518413
0.747289
0.689782
0.711879
0.695233
0.389363
0.356731
0.509295
0.689604
0.711713
0.376848
0.690839
0.64986
0.380944
0.319492
0.721488
0.702037
0.561889
0.561454
0.685515
0.700274
0.685354
0.702942
0.31916
0.726484
0.440386
0.698766
0.691841
0.363664
0.701809
0.701751
0.322533
0.331414
0.339205
0.558647
0.348301
0.699227
0.698954
0.726295
0.35283
0.691573
0.334872
0.659048
0.684847
0.662924
0.705548
0.68322
0.713432
0.701568
0.566304
0.693576
0.326706
0.690561
0.69383
0.495618
0.562363
0.69981
0.324951
0.323102
0.329695
0.700457
0.357632
0.5625
0.336559
0.703432
0.335584
0.459729
0.318596
0.710925
0.702892
0.613995
0.343967
0.709727
0.689944
0.340982
0.608554
0.705374
0.313645
0.63997
0.558594
0.707686
0.69148
0.327166
0.535344
0.696759
0.691764
0.691335
0.356043
0.402548
0.690796
0.559538
0.560831
0.560528
0.604526
0.696068
0.599897
0.699536
0.355892
0.333589
0.560888
0.705243
0.685324
0.337568
0.690542
0.620955
0.680594
0.324514
0.421232
0.701904
0.702872
0.584729
0.346303
0.69167
0.56252
0.340999
0.720768
0.71261
0.339706
0.313482
0.324827
0.688402
0.335353
0.346835
0.690636
0.492362
0.711443
0.703299
0.338931
0.341354
0.704617
0.322068
0.325164
0.574863
0.31502
0.381794
0.65353
0.701363
0.694675
0.349644
0.33782
0.341813
0.691631
0.310061
0.694639
0.326105
0.696923
0.698859
0.690842
0.689715
0.695194
0.691484
0.689498
0.705491
0.695087
0.336514
0.338866
0.694885
0.685498
0.487076
0.68927
0.588936
0.685463
0.690709
0.334099
0.697036
0.705764
0.692567
0.335725
0.694865
0.333025
0.693256
0.477181
0.714414
0.692935
0.33666
0.696783
0.351975
0.45609
0.691683
0.330882
0.717413
0.559647
0.702577
0.335154
0.694706
0.349877
0.318481
0.32198
0.350825
0.68819
0.324198
0.694177
0.685853
0.347577
0.324131
0.46652
0.604346
0.707759
0.690786
0.348354
0.339853
0.339069
0.321616
0.339705
0.706663
0.690367
0.333049
0.688149
0.699271
0.325967
0.705642
0.718384
0.688571
0.337675
0.562289
0.697852
0.698012
0.699651
0.326055
0.695388
0.697704
0.695043
0.721267
0.689511
0.339722
0.322597
0.693101
0.50642
0.354646
0.693875
0.324967
0.578013
0.701884
0.691408
0.690784
0.317427
0.688944
0.380241
0.335231
0.716353
0.697066
0.710883
0.695242
0.703521
0.318779
0.707708
0.326937
0.485026
0.705684
0.560939
0.696603
0.336777
0.334642
0.709714
0.351317
0.696262
0.727531
0.422174
0.345995
0.697851
0.320889
0.692753
0.69633
0.698945
0.321229
0.322098
0.513729
0.561588
0.702404
0.469747
0.6888
0.690281
0.690056
0.558145
0.697701
0.344471
0.343859
0.696305
0.689668
0.69053
0.440546
0.334197
0.69891
0.323412
0.689142
0.736858
0.342241
0.696599
0.35073
0.699746
0.328827
0.709788
0.333259
0.693679
0.691762
0.306993
0.699712
0.722993
0.311477
0.676841
0.69108
0.59001
0.315996
0.373623
0.46845
0.712936
0.687479
0.341691
0.635231
0.697986
0.686569
0.354726
0.689013
0.691511
0.444129
0.688936
0.688301
0.365036
0.69474
0.557437
0.328225
0.675887
0.337269
0.697157
0.334218
0.317601
0.71213
0.348763
0.352975
0.323826
0.695065
0.691131
0.392431
0.691635
0.374938
0.697863
0.350725
0.691771
0.365788
0.685851
0.693121
0.697462
0.679613
0.520039
0.69199
0.689611
0.331783
0.726911
0.699513
0.580003
0.697388
0.473083
0.409662
0.707826
0.34154
0.601393
0.336403
0.691121
0.338799
0.323888
0.712577
0.689298
0.343945
0.699343
0.716523
0.558182
0.703144
0.561542
0.349196
0.706067
0.346578
0.326922
0.694896
0.713454
0.703523
0.689879
0.313719
0.333252
0.341529
0.692526
0.685497
0.373316
0.702045
0.339475
0.334003
0.325662
0.691066
0.399725
0.707425
0.695281
0.7266
0.689876
0.694874
0.623074
0.694788
0.430935
0.312513
0.344329
0.561451
0.562272
0.337298
0.705708
0.687396
0.695409
0.327162
0.446202
0.690611
0.327458
0.690676
0.686031
0.347684
0.690876
0.694089
0.351527
0.694456
0.326525
0.694285
0.710513
0.694978
0.323763
0.453444
0.718029
0.369716
0.440374
0.690144
0.371985
0.690965
0.695168
0.693194
0.716643
0.345791
0.56836
0.716958
0.691594
0.399375
0.695178
0.326264
0.32934
0.691183
0.689549
0.687304
0.284837
0.693345
0.725891
0.562796
0.33989
0.342551
0.354514
0.695255
0.341718
0.327046
0.32786
0.68461
0.325827
0.36256
0.434887
0.694525
0.349787
0.674577
0.691547
0.69501
0.334724
0.693772
0.718995
0.686567
0.422548
0.721844
0.334997
0.341431
0.694414
0.344188
0.703995
0.698728
0.561364
0.348759
0.380446
0.330852
0.52676
0.561386
0.289168
0.691587
0.69495
0.716017
0.34683
0.326132
0.38769
0.687412
0.35195
0.558451
0.759645
0.691896
0.690838
0.349807
0.701388
0.308498
0.682062
0.727528
0.707194
0.678795
0.585732
0.722539
0.691182
0.696161
0.33814
0.359225
0.335016
0.714708
0.567868
0.561896
0.348765
0.408222
0.704969
0.693832
0.636755
0.344608
0.697821
0.529172
0.570222
0.687843
0.328768
0.345173
0.366032
0.689561
0.679398
0.720654
0.689385
0.385984
0.702585
0.724299
0.680859
0.684896
0.702523
0.705876
0.690377
0.70438
0.71122
0.327725
0.694451
0.695325
0.689295
0.694739
0.689685
0.666828
0.349373
0.308507
0.69094
0.354843
0.346086
0.696957
0.32201
0.725072
0.694116
0.691765
0.692534
0.326075
0.698913
0.322452
0.336792
0.691112
0.695988
0.692391
0.333885
0.69915
0.691115
0.689377
0.689463
0.329449
0.689537
0.709323
0.694462
0.377698
0.71384
0.3428
0.702577
0.328884
0.349569
0.625881
0.436885
0.706659
0.714784
0.691524
0.326655
0.689448
0.39493
0.322452
0.691325
0.47154
0.354723
0.691112
0.325054
0.494229
0.716476
0.690819
0.690438
0.470664
0.735404
0.713695
0.691979
0.667248
0.709812
0.504406
0.703499
0.689094
0.713019
0.296608
0.349483
0.434694
0.695193
0.325258
0.723598
0.699195
0.69016
0.692182
0.599977
0.717963
0.702442
0.337803
0.699515
0.68817
0.59116
0.688423
0.708835
0.695699
0.686104
0.346236
0.322321
0.693859
0.573038
0.605966
0.694899
0.693246
0.691927
0.711988
0.710937
0.704608
0.689649
0.707289
0.324628
0.317055
0.3384
0.338776
0.56117
0.441327
0.595972
0.696426
0.701054
0.327273
0.692884
0.703228
0.333926
0.398345
0.562372
0.694857
0.328971
0.301336
0.284548
0.558161
0.695327
0.380519
0.343351
0.347147
0.321806
0.356182
0.356169
0.703929
0.693105
0.698052
0.337192
0.691816
0.690825
0.748478
0.350896
0.347099
0.691214
0.561132
0.353641
0.687009
0.351297
0.712615
0.327702
0.693699
0.339481
0.690359
0.703075
0.334909
0.567249
0.347241
0.705842
0.311933
0.694978
0.325416
0.534608
0.334667
0.684977
0.341554
0.659894
0.663027
0.751932
0.695081
0.352076
0.691596
0.688982
0.700944
0.688928
0.698076
0.347113
0.441737
0.336456
0.712257
0.351636
0.700297
0.570789
0.713917
0.707587
0.538275
0.698145
0.322252
0.338189
0.324564
0.53362
0.633087
0.693164
0.337247
0.335342
0.693506
0.415807
0.320213
0.656967
0.392301
0.354347
0.309981
0.703442
0.726579
0.697134
0.33111
0.691373
0.689695
0.309105
0.383686
0.690055
0.6892
0.68195
0.497272
0.428965
0.400009
0.332731
0.701963
0.68958
0.562594
0.718028
0.325335
0.613882
0.350547
0.596386
0.699441
0.34736
0.349196
0.6906
0.651602
0.704607
0.709976
0.713157
0.69925
0.706367
0.330443
0.330882
0.333781
0.349131
0.619729
0.564355
0.726004
0.34916
0.347865
0.481652
0.31283
0.69188
0.690864
0.35243
0.363992
0.69431
0.328485
0.710304
0.710872
0.691556
0.68911
0.623213
0.352798
0.3394
0.688924
0.347531
0.432017
0.388474
0.685689
0.689591
0.358009
0.348201
0.559066
0.340814
0.689025
0.712167
0.349998
0.322867
0.339384
0.69345
0.343629
0.559363
0.699994
0.68925
0.302721
0.505694
0.696508
0.69142
0.346556
0.691787
0.691715
0.316077
0.695517
0.703027
0.338205
0.350984
0.691659
0.339341
0.348722
0.691619
0.39468
0.692854
0.717619
0.712477
0.693801
0.704111
0.694896
0.692514
0.342146
0.422687
0.691735
0.694289
0.450643
0.705942
0.367956
0.694259
0.690288
0.606372
0.714112
0.439412
0.440959
0.692906
0.695941
0.688977
0.702879
0.693247
0.562141
0.70309
0.558435
0.701394
0.691482
0.702439
0.561529
0.692565
0.313153
0.693066
0.3312
0.696903
0.694403
0.708911
0.691354
0.716809
0.322072
0.331544
0.372262
0.347706
0.691572
0.341965
0.336654
0.701096
0.301164
0.703026
0.333106
0.691316
0.695146
0.348339
0.41493
0.343283
0.695022
0.330527
0.692977
0.696758
0.329654
0.691226
0.586547
0.349278
0.331618
0.307769
0.71585
0.351633
0.699303
0.598505
0.349681
0.690208
0.691308
0.712977
0.351448
0.624829
0.322298
0.692059
0.68546
0.696517
0.356813
0.694283
0.694779
0.689872
0.409797
0.695068
0.35279
0.351757
0.689822
0.438747
0.70974
0.418834
0.355972
0.434284
0.690253
0.330221
0.313525
0.325692
0.544726
0.560104
0.696287
0.335593
0.683095
0.693123
0.520083
0.483594
0.341032
0.590356
0.35624
0.35045
0.691395
0.351995
0.351891
0.70064
0.704519
0.332517
0.713881
0.329603
0.562117
0.333186
0.69182
0.634548
0.715806
0.691132
0.325205
0.350948
0.321571
0.685527
0.691687
0.713884
0.571199
0.408065
0.365652
0.690949
0.34249
0.693004
0.408177
0.651613
0.708643
0.337522
0.328782
0.351437
0.34838
0.329557
0.690174
0.691293
0.339473
0.69412
0.709929
0.35136
0.322862
0.705138
0.35421
0.694596
0.430767
0.716197
0.716684
0.693658
0.55949
0.321883
0.710729
0.691249
0.703471
0.350334
0.688491
0.760197
0.344989
0.695298
0.696105
0.703808
0.691007
0.706602
0.690024
0.703477
0.689286
0.691218
0.34682
0.712877
0.351332
0.495761
0.690087
0.321823
0.691179
0.68817
0.334074
0.689873
0.350183
0.31654
0.693432
0.686772
0.704562
0.344285
0.690853
0.723454
0.333123
0.337721
0.697742
0.689429
0.403221
0.324502
0.698955
0.705069
0.352763
0.710188
0.704395
0.725613
0.336915
0.352321
0.318086
0.720122
0.33451
0.69183
0.714734
0.691021
0.68871
0.694748
0.343956
0.690717
0.730641
0.702695
0.678254
0.323872
0.343017
0.321904
0.712808
0.696853
0.429565
0.715864
0.338654
0.697244
0.697109
0.322708
0.691866
0.691925
0.706251
0.336768
0.344175
0.339608
0.696127
0.709862
0.722256
0.496552
0.694323
0.353123
0.712942
0.561706
0.6946
0.335953
0.724351
0.335785
0.688317
0.319798
0.693104
0.696195
0.332013
0.695622
0.502522
0.561235
0.705815
0.558296
0.699734
0.419921
0.690976
0.691562
0.689269
0.693203
0.465327
0.561722
0.337516
0.69165
0.323288
0.344993
0.328778
0.329389
0.355391
0.337491
0.705274
0.40338
0.325033
0.705367
0.695707
0.691107
0.385012
0.717558
0.718407
0.689114
0.323431
0.680242
0.695196
0.338166
0.325785
0.350918
0.708239
0.490332
0.349506
0.676894
0.305418
0.55963
0.484285
0.344998
0.454367
0.717654
0.340982
0.689155
0.324611
0.574238
0.399795
0.702118
0.399766
0.70301
0.562427
0.686256
0.48254
0.350348
0.701844
0.705723
0.326034
0.318409
0.685689
0.346568
0.714089
0.337025
0.589356
0.32097
0.694977
0.330854
0.705492
0.344643
0.698326
0.694889
0.695818
0.561797
0.33676
0.326493
0.381712
0.696446
0.701271
0.690117
0.638917
0.333507
0.698399
0.341248
0.691685
0.684645
0.409328
0.346688
0.713187
0.692618
0.324557
0.587953
0.702157
0.711134
0.71246
0.325136
0.715365
0.35227
0.707291
0.333589
0.690082
0.691095
0.701111
0.704693
0.351436
0.703646
0.348171
0.335878
0.688423
0.561766
0.585911
0.693874
0.560769
0.353975
0.712966
0.701678
0.703505
0.318906
0.424997
0.718021
0.341471
0.69461
0.699312
0.691362
0.702325
0.342195
0.465534
0.725472
0.33103
0.690398
0.705054
0.500382
0.693987
0.34993
0.689464
0.712576
0.719192
0.698733
0.344633
0.324402
0.693403
0.691615
0.331022
0.357127
0.328283
0.3289
0.325947
0.311639
0.333247
0.354584
0.693754
0.323895
0.336216
0.69957
0.586128
0.560217
0.408586
0.348417
0.69331
0.475273
0.557783
0.711851
0.395727
0.724638
0.675496
0.740615
0.692261
0.33046
0.696175
0.690463
0.32691
0.351585
0.412029
0.687841
0.736974
0.70711
0.685557
0.694966
0.692683
0.358557
0.695544
0.691561
0.699651
0.350265
0.694903
0.68366
0.35571
0.426952
0.343059
0.32039
0.327352
0.666004
0.717025
0.695139
0.350566
0.420429
0.703699
0.309297
0.697286
0.691569
0.691434
0.71891
0.69366
0.336782
0.321719
0.285091
0.622074
0.33229
0.692939
0.289059
0.693791
0.688057
0.694285
0.337072
0.44894
0.418011
0.694821
0.323939
0.350592
0.697277
0.692065
0.694928
0.68544
0.697806
0.714511
0.355638
0.725179
0.709042
0.510041
0.694581
0.698802
0.714868
0.446634
0.427749
0.703472
0.480678
0.696328
0.353048
0.692098
0.690934
0.378713
0.335093
0.692072
0.526097
0.696516
0.697725
0.352337
0.345851
0.558712
0.477205
0.392619
0.69046
0.697468
0.337749
0.69087
0.559574
0.691488
0.356285
0.673225
0.35394
0.690565
0.698004
0.714734
0.694721
0.563223
0.362055
0.370148
0.695974
0.344071
0.74675
0.346101
0.69399
0.328659
0.706707
0.708744
0.559847
0.356887
0.558821
0.562099
0.35033
0.692158
0.307204
0.70357
0.355313
0.338874
0.301948
0.698204
0.690715
0.381073