# vtk DataFile Version 1.0
unstructured grid
ascii
DATASET UNSTRUCTURED_GRID
points 13672 float
0.0796578 -0.059106 0
0.00128732 0.00159165 0
0.00227961 -0.00102548 0
0.0791586 -0.0598787 0
-0.0546216 0.01 0
0.000495206 0.025 0
0.0800549 -0.035 0
0.135172 -0.08 0
-0.0546216 -0.0451168 0
0.000495206 -0.0301168 0
0.0800549 -0.0901168 0
0.135172 -0.135117 0
-0.0546216 -0.0451168 -0.00551168
0.000495206 -0.0301168 -0.00551168
0.0800549 -0.0901168 -0.00551168
0.135172 -0.135117 -0.00551168
0.135172 -0.08 -0.00551168
0.0800549 -0.035 -0.00551168
0.000495206 0.025 -0.00551168
-0.0546216 0.01 -0.00551168
0.00128732 0.00159165 -0.00551168
0.00227961 -0.00102548 -0.00551168
0.0791586 -0.0598787 -0.00551168
0.0796578 -0.059106 -0.00551168
0.00165953 -0.000990923 0
0.00119576 -0.000874076 0
0.000866021 -0.000641801 0
0.000645147 -0.000349912 0
0.00052235 -1.7281e-05 0
0.00049972 0.000348016 0
0.000601632 0.000737716 0
0.000861774 0.0011403 0
0.00157235 0.00183217 0
0.00188647 0.00206725 0
0.00222612 0.00230203 0
0.00258713 0.00254351 0
0.00296826 0.00279524 0
0.00337118 0.00305664 0
0.00379785 0.00332658 0
0.00425045 0.00360349 0
0.00473139 0.00388521 0
0.0052432 0.00416895 0
0.0057881 0.00445204 0
0.00636753 0.00473281 0
0.00698281 0.00500961 0
0.00763526 0.00528058 0
0.00832616 0.00554366 0
0.00905691 0.00579603 0
0.00982918 0.00603333 0
0.0106445 0.00625033 0
0.0115038 0.00644128 0
0.0124073 0.00660297 0
0.0133543 0.00673414 0
0.0143444 0.00683382 0
0.0153769 0.00690031 0
0.0164512 0.00693173 0
0.0175666 0.00692547 0
0.0187219 0.00687822 0
0.0199156 0.00678477 0
0.0211454 0.00663864 0
0.0224084 0.00643275 0
0.0237018 0.00616676 0
0.0250249 0.00584739 0
0.026375 0.00547298 0
0.0277479 0.00503752 0
0.0291386 0.00453545 0
0.0305433 0.0039653 0
0.0319572 0.0033256 0
0.0333681 0.00260019 0
0.034775 0.00179799 0
0.0361793 0.000930615 0
0.0375798 3.12222e-06 0
0.0389689 -0.000988429 0
0.0403357 -0.00205109 0
0.041675 -0.00318283 0
0.0429849 -0.00437751 0
0.0442643 -0.00562904 0
0.0455126 -0.00693089 0
0.0467314 -0.00827518 0
0.0479204 -0.00965638 0
0.0490661 -0.0110799 0
0.0501515 -0.0125519 0
0.0511696 -0.0140695 0
0.0521492 -0.0156071 0
0.0531202 -0.0171411 0
0.0540851 -0.0186663 0
0.0550431 -0.0201798 0
0.0559923 -0.0216793 0
0.0569311 -0.0231626 0
0.0578582 -0.0246273 0
0.0587723 -0.0260715 0
0.0596721 -0.027493 0
0.0605563 -0.02889 0
0.0614241 -0.0302609 0
0.0622742 -0.0316042 0
0.063106 -0.0329183 0
0.0639186 -0.034202 0
0.0647113 -0.0354543 0
0.0654835 -0.0366743 0
0.0662345 -0.0378613 0
0.0669642 -0.0390145 0
0.0676726 -0.0401333 0
0.0683597 -0.0412172 0
0.0690246 -0.0422665 0
0.0696662 -0.0432819 0
0.0702841 -0.0442636 0
0.0708793 -0.0452111 0
0.0714538 -0.0461237 0
0.072009 -0.047001 0
0.0725452 -0.0478434 0
0.0730611 -0.0486524 0
0.073556 -0.0494294 0
0.0740291 -0.0501756 0
0.0744812 -0.0508916 0
0.0749138 -0.0515773 0
0.0753285 -0.0522331 0
0.0757266 -0.0528592 0
0.076109 -0.0534564 0
0.0764753 -0.0540264 0
0.0768243 -0.054571 0
0.0771553 -0.0550919 0
0.0774679 -0.0555901 0
0.0777617 -0.0560669 0
0.0780369 -0.056523 0
0.0782958 -0.0569578 0
0.0785421 -0.0573703 0
0.0787786 -0.0577603 0
0.0790073 -0.0581279 0
0.0792295 -0.058474 0
0.0794462 -0.0587995 0
0.0798803 -0.0594162 0
0.0800272 -0.0596588 0
0.0800357 -0.0598891 0
0.0799275 -0.0600784 0
0.0797205 -0.0601773 0
0.0794593 -0.0601051 0
0.0789155 -0.0596491 0
0.0786707 -0.0593963 0
0.0784111 -0.0591319 0
0.0781372 -0.0588542 0
0.0778566 -0.0585548 0
0.0775715 -0.0582308 0
0.0772803 -0.0578828 0
0.0769832 -0.0575099 0
0.0766822 -0.0571097 0
0.0763801 -0.0566796 0
0.0760759 -0.0562196 0
0.0757623 -0.0557337 0
0.0754359 -0.0552232 0
0.0750951 -0.0546879 0
0.0747379 -0.054128 0
0.0743626 -0.0535435 0
0.0739688 -0.0529338 0
0.0735559 -0.0522981 0
0.0731238 -0.0516357 0
0.0726718 -0.050946 0
0.0721991 -0.0502288 0
0.0717046 -0.049484 0
0.0711872 -0.0487117 0
0.0706461 -0.047912 0
0.0700804 -0.0470849 0
0.0694892 -0.0462308 0
0.0688718 -0.0453499 0
0.0682271 -0.0444431 0
0.0675544 -0.043511 0
0.0668527 -0.0425546 0
0.0661215 -0.0415748 0
0.06536 -0.040573 0
0.0645676 -0.0395504 0
0.0637439 -0.0385087 0
0.0628887 -0.0374493 0
0.062002 -0.0363741 0
0.0610838 -0.0352847 0
0.0601345 -0.0341831 0
0.0591547 -0.033071 0
0.0581456 -0.0319502 0
0.0571083 -0.0308224 0
0.0560444 -0.0296893 0
0.0549562 -0.028552 0
0.053845 -0.0274126 0
0.0527113 -0.0262746 0
0.051554 -0.0251427 0
0.0503724 -0.0240222 0
0.0491675 -0.0229164 0
0.047941 -0.0218282 0
0.0466955 -0.0207597 0
0.0454337 -0.0197126 0
0.0441592 -0.0186878 0
0.0428751 -0.0176863 0
0.0415841 -0.0167097 0
0.0402878 -0.0157609 0
0.0389879 -0.0148428 0
0.0376864 -0.0139575 0
0.0363853 -0.013107 0
0.0350871 -0.0122931 0
0.0337942 -0.0115164 0
0.0325095 -0.0107772 0
0.0312357 -0.0100756 0
0.0299758 -0.00941024 0
0.0287337 -0.00877784 0
0.0275126 -0.00817571 0
0.0263139 -0.00760375 0
0.0251376 -0.00706528 0
0.0239829 -0.0065649 0
0.0228537 -0.00609619 0
0.0217522 -0.00565563 0
0.0206795 -0.00524226 0
0.0196364 -0.00485507 0
0.0186233 -0.00449318 0
0.0176408 -0.00415577 0
0.016689 -0.00384204 0
0.0157682 -0.00355115 0
0.0148783 -0.00328218 0
0.0140192 -0.00303468 0
0.0131906 -0.00280795 0
0.0123925 -0.00260016 0
0.0116246 -0.00241012 0
0.0108864 -0.00223769 0
0.0101774 -0.00208212 0
0.00949701 -0.00194206 0
0.00884483 -0.0018163 0
0.0082202 -0.0017039 0
0.00762247 -0.00160391 0
0.00705097 -0.00151528 0
0.006505 -0.00143697 0
0.0059838 -0.00136806 0
0.00548662 -0.00130772 0
0.00501265 -0.00125519 0
0.00456114 -0.00120954 0
0.00413136 -0.00116914 0
0.00372257 -0.00113251 0
0.00333398 -0.00109853 0
0.00296466 -0.00106798 0
0.00261363 -0.0010431 0
-0.052721 -0.0445996 0
-0.0508204 -0.0440823 0
-0.0489199 -0.0435651 0
-0.0470193 -0.0430478 0
-0.0451187 -0.0425306 0
-0.0432181 -0.0420134 0
-0.0413175 -0.0414961 0
-0.039417 -0.0409789 0
-0.0375164 -0.0404616 0
-0.0356158 -0.0399444 0
-0.0337152 -0.0394271 0
-0.0318146 -0.0389099 0
-0.0299141 -0.0383927 0
-0.0280135 -0.0378754 0
-0.0261129 -0.0373582 0
-0.0242123 -0.0368409 0
-0.0223117 -0.0363237 0
-0.0204112 -0.0358065 0
-0.0185106 -0.0352892 0
-0.01661 -0.034772 0
-0.0147094 -0.0342547 0
-0.0128088 -0.0337375 0
-0.0109083 -0.0332202 0
-0.00900769 -0.032703 0
-0.00710711 -0.0321858 0
-0.00520653 -0.0316685 0
-0.00330595 -0.0311513 0
-0.00140537 -0.030634 0
0.00190689 -0.0299614 0
0.00332271 -0.0298498 0
0.00474133 -0.0297825 0
0.00616136 -0.0297597 0
0.0075814 -0.0297814 0
0.00900007 -0.0298477 0
0.010416 -0.0299583 0
0.0118278 -0.0301127 0
0.0132342 -0.0303103 0
0.0146339 -0.0305504 0
0.0160259 -0.0308322 0
0.0174091 -0.0311546 0
0.0187824 -0.0315166 0
0.020145 -0.031917 0
0.0214961 -0.0323546 0
0.0228351 -0.032828 0
0.0241613 -0.0333361 0
0.0254744 -0.0338774 0
0.0267738 -0.0344507 0
0.0280592 -0.0350545 0
0.0293306 -0.0356877 0
0.0305875 -0.0363488 0
0.0318301 -0.0370367 0
0.0330581 -0.0377501 0
0.0342717 -0.0384879 0
0.0354708 -0.0392489 0
0.0366556 -0.0400321 0
0.0378262 -0.0408363 0
0.0389828 -0.0416607 0
0.0401254 -0.0425042 0
0.0412543 -0.0433659 0
0.0423698 -0.0442451 0
0.043472 -0.0451408 0
0.0445612 -0.0460523 0
0.0456375 -0.0469789 0
0.0467013 -0.0479199 0
0.0477529 -0.0488746 0
0.0487923 -0.0498424 0
0.04982 -0.0508227 0
0.0508362 -0.051815 0
0.051841 -0.0528187 0
0.0528348 -0.0538333 0
0.0538178 -0.0548584 0
0.0547903 -0.0558935 0
0.0557524 -0.0569382 0
0.0567045 -0.0579922 0
0.0576467 -0.0590549 0
0.0585792 -0.0601261 0
0.0595024 -0.0612055 0
0.0604163 -0.0622926 0
0.0613212 -0.0633873 0
0.0622174 -0.0644891 0
0.0631049 -0.0655979 0
0.0639841 -0.0667134 0
0.064855 -0.0678353 0
0.0657179 -0.0689633 0
0.0665729 -0.0700974 0
0.0674202 -0.0712372 0
0.06826 -0.0723826 0
0.0690925 -0.0735333 0
0.0699178 -0.0746892 0
0.070736 -0.0758501 0
0.0715473 -0.0770159 0
0.0723518 -0.0781863 0
0.0731498 -0.0793612 0
0.0739412 -0.0805405 0
0.0747264 -0.081724 0
0.0755053 -0.0829116 0
0.0762781 -0.0841033 0
0.0770449 -0.0852987 0
0.0778059 -0.0864979 0
0.0785611 -0.0877007 0
0.0793108 -0.088907 0
0.0814681 -0.0912706 0
0.0828814 -0.0924245 0
0.0842946 -0.0935783 0
0.0857079 -0.0947322 0
0.0871211 -0.095886 0
0.0885344 -0.0970399 0
0.0899476 -0.0981937 0
0.0913609 -0.0993476 0
0.0927741 -0.100501 0
0.0941874 -0.101655 0
0.0956006 -0.102809 0
0.0970139 -0.103963 0
0.0984272 -0.105117 0
0.0998404 -0.106271 0
0.101254 -0.107424 0
0.102667 -0.108578 0
0.10408 -0.109732 0
0.105493 -0.110886 0
0.106907 -0.11204 0
0.10832 -0.113194 0
0.109733 -0.114348 0
0.111146 -0.115501 0
0.11256 -0.116655 0
0.113973 -0.117809 0
0.115386 -0.118963 0
0.116799 -0.120117 0
0.118213 -0.121271 0
0.119626 -0.122424 0
0.121039 -0.123578 0
0.122452 -0.124732 0
0.123866 -0.125886 0
0.125279 -0.12704 0
0.126692 -0.128194 0
0.128105 -0.129348 0
0.129519 -0.130501 0
0.130932 -0.131655 0
0.132345 -0.132809 0
0.133758 -0.133963 0
0.135172 -0.133216 0
0.135172 -0.131316 0
0.135172 -0.129415 0
0.135172 -0.127514 0
0.135172 -0.125614 0
0.135172 -0.123713 0
0.135172 -0.121813 0
0.135172 -0.119912 0
0.135172 -0.118012 0
0.135172 -0.116111 0
0.135172 -0.11421 0
0.135172 -0.11231 0
0.135172 -0.110409 0
0.135172 -0.108509 0
0.135172 -0.106608 0
0.135172 -0.104708 0
0.135172 -0.102807 0
0.135172 -0.100906 0
0.135172 -0.0990058 0
0.135172 -0.0971052 0
0.135172 -0.0952046 0
0.135172 -0.0933041 0
0.135172 -0.0914035 0
0.135172 -0.0895029 0
0.135172 -0.0876023 0
0.135172 -0.0857017 0
0.135172 -0.0838012 0
0.135172 -0.0819006 0
0.133758 -0.0788462 0
0.132345 -0.0776923 0
0.130932 -0.0765385 0
0.129519 -0.0753846 0
0.128105 -0.0742308 0
0.126692 -0.0730769 0
0.125279 -0.0719231 0
0.123866 -0.0707692 0
0.122452 -0.0696154 0
0.121039 -0.0684615 0
0.119626 -0.0673077 0
0.118213 -0.0661538 0
0.116799 -0.065 0
0.115386 -0.0638462 0
0.113973 -0.0626923 0
0.11256 -0.0615385 0
0.111146 -0.0603846 0
0.109733 -0.0592308 0
0.10832 -0.0580769 0
0.106907 -0.0569231 0
0.105493 -0.0557692 0
0.10408 -0.0546154 0
0.102667 -0.0534615 0
0.101254 -0.0523077 0
0.0998404 -0.0511538 0
0.0984272 -0.05 0
0.0970139 -0.0488462 0
0.0956006 -0.0476923 0
[...]
CELL_DATA 13116
SCALARS rho float
LOOKUP_TABLE default
0.649282
0.691554
0.343884
0.68973
0.702852
0.686217
0.352637
0.690901
0.587147
0.702227
0.353602
0.337626
0.703035
0.347578
0.353999
0.686253
0.65235
0.719192
0.691357
0.348669
0.643436
0.356372
0.348467
0.712449
0.661913
0.686066
0.701305
0.348796
0.566974
0.714028
0.593532
0.330915
0.616796
0.481372
0.35333
0.647002
0.705297
0.690894
0.685438
0.687101
0.69175
0.691535
0.502866
0.340287
0.690886
0.691366
0.684854
0.694042
0.364874
0.535789
0.69832
0.496712
0.34837
0.648749
0.61899
0.6463
0.340378
0.706987
0.54216
0.364588
0.347285
0.701982
0.688394
0.68546
0.630829
0.340655
0.687393
0.708956
0.696874
0.66549
0.352265
0.565854
0.353618
0.340703
0.556134
0.333351
0.692637
0.699502
0.351639
0.714135
0.704463
0.685994
0.709165
0.694104
0.688994
0.476397
0.34665
0.718065
0.688366
0.355971
0.338577
0.691753
0.708415
0.688869
0.707744
0.6606
0.664485
0.559551
0.556425
0.652255
0.725234
0.675446
0.690831
0.450095
0.681972
0.35552
0.438293
0.557651
0.347087
0.604111
0.592973
0.684615
0.658809
0.70671
0.71622
0.686795
0.345166
0.437629
0.69758
0.687621
0.710073
0.356067
0.697277
0.338361
0.688843
0.469065
0.346409
0.525012
0.345469
0.537391
0.697808
0.69722
0.510838
0.360951
0.495362
0.668233
0.558138
0.69828
0.725714
0.687551
0.686327
0.685436
0.525767
0.686665
0.689442
0.351713
0.35335
0.685789
0.702477
0.689068
0.539084
0.693841
0.693949
0.338874
0.706036
0.689093
0.347468
0.733062
0.564552
0.71937
0.709769
0.35298
0.706028
0.347554
0.355318
0.702797
0.688952
0.720198
0.35319
0.482883
0.459668
0.558246
0.355076
0.514008
0.687014
0.349128
0.351315
0.354731
0.684685
0.691682
0.349472
0.462839
0.617829
0.706048
0.692124
0.543108
0.339225
0.688081
0.683085
0.485775
0.692918
0.685786
0.674795
0.34422
0.685299
0.685455
0.706873
0.689451
0.688213
0.403705
0.451582
0.666903
0.520976
0.343557
0.699916
0.692818
0.501891
0.666519
0.361778
0.354743
0.333548
0.687832
0.347875
0.352308
0.356009
0.337876
0.426159
0.687528
0.688927
0.470341
0.339423
0.687082
0.587175
0.349945
0.539151
0.702593
0.688847
0.349416
0.686925
0.454936
0.689141
0.334495
0.676418
0.557113
0.553801
0.68946
0.682111
0.377969
0.464048
0.721429
0.556989
0.686036
0.558039
0.684459
0.689505
0.352003
0.699324
0.705588
0.556981
0.352915
0.365833
0.692784
0.697569
0.657516
0.696049
0.646706
0.71097
0.353407
0.387165
0.414587
0.360631
0.681492
0.707494
0.691178
0.34857
0.68937
0.340002
0.467196
0.682156
0.345911
0.686289
0.698131
0.558217
0.706235
0.376539
0.55824
0.704809
0.555091
0.698252
0.351355
0.34568
0.345534
0.666969
0.354322
0.365596
0.428623
0.397913
0.690278
0.348769
0.688777
0.702851
0.342342
0.348358
0.340901
0.475788
0.348406
0.717158
0.672397
0.683471
0.346769
0.694492
0.557729
0.38429
0.363095
0.686266
0.697647
0.689473
0.338574
0.685525
0.461217
0.696791
0.692525
0.688616
0.693486
0.344511
0.686609
0.354132
0.686205
0.694087
0.729962
0.352692
0.426834
0.70517
0.341897
0.687523
0.702333
0.384868
0.717336
0.709242
0.342971
0.689445
0.708153
0.350719
0.698853
0.472558
0.549704
0.689673
0.477158
0.732992
0.348151
0.71008
0.433279
0.686163
0.677385
0.703059
0.348455
0.432246
0.689144
0.340014
0.698903
0.683554
0.45764
0.558264
0.339145
0.346611
0.697346
0.542256
0.707136
0.345398
0.347731
0.698637
0.70284
0.353726
0.701772
0.344271
0.363496
0.687294
0.689849
0.581668
0.357748
0.698555
0.609263
0.686234
0.689216
0.703066
0.54124
0.360569
0.358035
0.34926
0.686173
0.349826
0.618606
0.390009
0.342785
0.429777
0.588346
0.17584
0.340875
0.689557
0.337036
0.706311
0.625998
0.692501
0.720216
0.700021
0.347061
0.345599
0.411004
0.369253
0.698052
0.657017
0.69166
0.601654
0.69026
0.681635
0.685643
0.686474
0.712845
0.702049
0.71529
0.686105
0.418401
0.50282
0.647839
0.352346
0.671095
0.646654
0.347986
0.686797
0.558076
0.345368
0.350552
0.353731
0.340559
0.649151
0.344834
0.34459
0.686784
0.33914
0.555051
0.355277
0.686488
0.700525
0.350427
0.359055
0.697299
0.475119
0.355768
0.340813
0.357241
0.347368
0.344987
0.350841
0.361176
0.468629
0.353895
0.675249
0.355985
0.688536
0.382867
0.337207
0.506608
0.35291
0.35586
0.352223
0.688573
0.467243
0.786391
0.578471
0.340113
0.669684
0.688488
0.474204
0.714711
0.683765
0.683785
0.344309
0.556944
0.440593
0.704397
0.571546
0.347576
0.350292
0.682588
0.370505
0.476303
0.67872
0.436126
0.733606
0.689567
0.347922
0.349396
0.352079
0.509663
0.360919
0.348782
0.353579
0.353181
0.698025
0.696643
0.48026
0.655622
0.497019
0.684959
0.418655
0.339358
0.594865
0.347655
0.695199
0.401193
0.436775
0.508154
0.690845
0.688694
0.546622
0.381938
0.350498
0.544846
0.69154
0.680754
0.543294
0.682247
0.681121
0.353666
0.700307
0.556757
0.722646
0.404327
0.348419
0.706673
0.705949
0.722187
0.700198
0.687257
0.686352
0.709765
0.725044
0.692375
0.355262
0.690569
0.436725
0.364523
0.35345
0.690171
0.692697
0.416349
0.688625
0.572019
0.352977
0.68636
0.697559
0.702265
0.34857
0.339681
0.698805
0.356108
0.356873
0.347578
0.353705
0.695115
0.349772
0.688515
0.355294
0.691619
0.69859
0.695671
0.702985
0.356224
0.349408
0.693592
0.689145
0.698717
0.699478
0.705776
0.499499
0.343207
0.347616
0.692708
0.557901
0.353724
0.477284
0.342433
0.688636
0.686498
0.405389
0.358012
0.688118
0.480385
0.68989
0.753312
0.345053
0.453387
0.697435
0.556832
0.347409
0.688378
0.688717
0.693212
0.335115
0.558192
0.339768
0.558476
0.72328
0.35803
0.422587
0.363997
0.555286
0.347179
0.3506
0.438766
0.686537
0.699287
0.35098
0.383852
0.354631
0.686045
0.354874
0.687486
0.351742
0.572083
0.702072
0.386278
0.347558
0.348072
0.500574
0.347688
0.687224
0.336947
0.339525
0.686438
0.351639
0.686099
0.686974
0.556688
0.355448
0.695309
0.708219
0.707748
0.693393
0.689032
0.687022
0.342964
0.671002
0.472549
0.693885
0.350623
0.689554
0.527152
0.352933
0.602691
0.702601
0.341268
0.688286
0.338859
0.350413
0.68749
0.689119
0.341749
0.352491
0.351433
0.334252
0.68884
0.714432
0.335909
0.346383
0.699172
0.69577
0.593346
0.707707
0.686074
0.353162
0.704052
0.462891
0.699011
0.436166
0.655325
0.495549
0.686485
0.706924
0.558318
0.414952
0.348142
0.689343
0.573081
0.643101
0.707376
0.358561
0.702262
0.706008
0.455548
0.500595
0.707979
0.387087
0.641469
0.721247
0.425248
0.687403
0.70793
0.345217
0.700457
0.345495
0.687652
0.335377
0.687255
0.687735
0.348559
0.685761
0.706473
0.699266
0.585458
0.697953
0.558695
0.380005
0.457875
0.340439
0.34129
0.558196
0.541176
0.696976
0.702209
0.353266
0.363613
0.698303
0.697137
0.69753
0.696797
0.351337
0.719251
0.705207
0.349171
0.340494
0.697618
0.69263
0.688
0.309902
0.561198
0.351098
0.701096
0.686231
0.68004
0.692386
0.353598
0.695082
0.688545
0.708512
0.6896
0.692537
0.471292
0.702681
0.354205
0.682926
0.705525
0.481137
0.690355
0.684424
0.697749
0.461108
0.441466
0.560769
0.728931
0.356019
0.357928
0.343936
0.354161
0.69257
0.702023
0.684239
0.398562
0.353648
0.696697
0.722626
0.349638
0.365739
0.483999
0.699616
0.68922
0.689101
0.707325
0.355127
0.356071
0.558193
0.337629
0.352165
0.335846
0.690138
0.350727
0.35622
0.641382
0.693289
0.684384
0.685969
0.688289
0.344172
0.351327
0.344752
0.590836
0.469717
0.336383
0.707827
0.708068
0.688526
0.694276
0.311328
0.355907
0.701439
0.354799
0.692251
0.687289
0.57558
0.341776
0.357339
0.687057
0.602212
0.661289
0.350129
0.689392
0.686035
0.638853
0.689688
0.693518
0.558242
0.682067
0.351443
0.687385
0.641277
0.682034
0.701446
0.558222
0.684804
0.55811
0.697761
0.340345
0.342136
0.355913
0.605913
0.534453
0.355014
0.697917
0.699619
0.342962
0.694999
0.35149
0.694754
0.572318
0.374777
0.698435
0.716132
0.354038
0.535873
0.609536
0.343326
0.68922
0.342103
0.358157
0.677231
0.661835
0.506381
0.690849
0.342635
0.705399
0.347138
0.324562
0.686041
0.353573
0.662503
0.342103
0.693639
0.656434
0.55801
0.688796
0.357795
0.33978
0.67901
0.513615
0.697579
0.491391
0.656507
0.686289
0.708749
0.526447
0.583965
0.684878
0.706397
0.689482
0.43687
0.357834
0.533169
0.685182
0.704017
0.409594
0.690643
0.661429
0.409341
0.341553
0.72925
0.700946
0.557909
0.55743
0.677927
0.704943
0.686221
0.704417
0.341294
0.726384
0.480767
0.687998
0.692422
0.404561
0.689241
0.70186
0.341321
0.372425
0.341722
0.558223
0.352796
0.67513
0.702225
0.727107
0.400272
0.690118
0.345258
0.562043
0.685727
0.676768
0.707924
0.685937
0.669626
0.704196
0.591966
0.693394
0.336041
0.691055
0.695686
0.495762
0.558725
0.701643
0.345774
0.358833
0.343325
0.689429
0.357719
0.558011
0.344205
0.690396
0.350653
0.496524
0.348696
0.704442
0.699231
0.645569
0.39479
0.670323
0.688394
0.35046
0.619332
0.694496
0.33465
0.6489
0.561372
0.703391
0.692919
0.347367
0.553561
0.698277
0.691902
0.683791
0.356839
0.437939
0.689962
0.558274
0.557418
0.558253
0.636035
0.697486
0.632065
0.687334
0.356717
0.34484
0.558204
0.702076
0.686495
0.340484
0.690934
0.646585
0.66893
0.335186
0.463208
0.701885
0.687395
0.550276
0.364971
0.693059
0.558958
0.352952
0.664807
0.706899
0.353278
0.337351
0.354722
0.684556
0.358812
0.355328
0.689339
0.49603
0.705188
0.698878
0.35295
0.343971
0.699705
0.340391
0.343673
0.59769
0.360772
0.419285
0.65194
0.689009
0.69567
0.353924
0.353487
0.354143
0.68758
0.356542
0.695795
0.348776
0.697772
0.687103
0.690321
0.683339
0.695304
0.685757
0.688683
0.702741
0.696778
0.349272
0.349742
0.693824
0.68606
0.507732
0.683843
0.586182
0.686064
0.680475
0.349973
0.687053
0.696598
0.69215
0.351237
0.69529
0.349558
0.694223
0.500494
0.711183
0.694368
0.37473
0.698413
0.354196
0.475805
0.688853
0.334939
0.725979
0.558214
0.689305
0.339705
0.686352
0.354434
0.341103
0.34287
0.356203
0.677811
0.357305
0.6889
0.684455
0.366887
0.344146
0.497713
0.56055
0.704361
0.683787
0.35545
0.341817
0.353756
0.349769
0.390048
0.702279
0.684875
0.349047
0.68649
0.701887
0.354037
0.693191
0.725494
0.684969
0.351084
0.557594
0.697852
0.702221
0.688374
0.359657
0.696098
0.702143
0.695455
0.741701
0.687541
0.37055
0.343161
0.693803
0.529966
0.357556
0.685935
0.347055
0.550788
0.689163
0.687511
0.687765
0.339408
0.683426
0.410848
0.350045
0.71273
0.699117
0.704012
0.699826
0.703237
0.341432
0.703497
0.363852
0.506614
0.702776
0.552842
0.698042
0.352012
0.379846
0.705504
0.396257
0.69852
0.751069
0.461904
0.374675
0.687437
0.342109
0.694375
0.698398
0.697756
0.342452
0.342635
0.5193
0.584392
0.683086
0.49468
0.686381
0.683741
0.688912
0.558203
0.69825
0.350421
0.371448
0.699337
0.688311
0.683357
0.481701
0.342292
0.699807
0.356044
0.686366
0.59205
0.358702
0.697858
0.352674
0.687991
0.344136
0.703334
0.374143
0.694369
0.690782
0.337144
0.688914
0.727301
0.336188
0.682819
0.690659
0.606443
0.352317
0.406128
0.489847
0.708268
0.678886
0.361929
0.55899
0.698826
0.686431
0.401514
0.676314
0.690261
0.478053
0.686419
0.686293
0.408912
0.69625
0.562276
0.342889
0.66013
0.342059
0.69267
0.340636
0.361092
0.70655
0.356782
0.354884
0.356614
0.686445
0.689161
0.424467
0.692844
0.408853
0.696898
0.354629
0.690224
0.393663
0.686302
0.69414
0.69571
0.680373
0.537411
0.689935
0.684763
0.347784
0.764654
0.697801
0.613989
0.697933
0.500936
0.443521
0.703338
0.348321
0.556057
0.352088
0.691288
0.348247
0.344301
0.717525
0.687096
0.348594
0.687425
0.708573
0.558223
0.696046
0.559628
0.351811
0.692139
0.351101
0.347469
0.688944
0.706591
0.691176
0.688589
0.337526
0.339711
0.353964
0.691451
0.684121
0.40655
0.68935
0.341741
0.339518
0.333562
0.688383
0.437536
0.703818
0.696944
0.764947
0.689446
0.696408
0.643698
0.689903
0.471923
0.339512
0.349052
0.557568
0.557979
0.341169
0.698429
0.683449
0.692072
0.3475
0.465358
0.684466
0.377092
0.683225
0.674004
0.351995
0.690493
0.692909
0.355476
0.695422
0.345855
0.696399
0.699512
0.695178
0.357633
0.487368
0.717852
0.414174
0.474754
0.689023
0.413563
0.691147
0.690383
0.686089
0.7093
0.362792
0.596902
0.712222
0.691618
0.444842
0.700133
0.350402
0.351818
0.689741
0.688687
0.68434
0.33293
0.693624
0.778811
0.554418
0.341673
0.345079
0.356055
0.696476
0.353128
0.350947
0.343802
0.67268
0.347446
0.402528
0.475238
0.695664
0.353789
0.678591
0.684759
0.687064
0.339007
0.695354
0.718991
0.68637
0.464307
0.733629
0.352821
0.348686
0.686364
0.348678
0.692708
0.699757
0.558099
0.353294
0.428108
0.342045
0.544005
0.558043
0.335247
0.691297
0.686472
0.70916
0.355178
0.362469
0.435321
0.679838
0.354645
0.558218
0.569503
0.685778
0.690124
0.3517
0.690759
0.340485
0.671215
0.746872
0.697531
0.668736
0.621357
0.723602
0.684
0.699862
0.343873
0.381902
0.338066
0.711144
0.563902
0.556977
0.353107
0.447791
0.703622
0.695189
0.659995
0.349182
0.687039
0.542878
0.546339
0.679465
0.347715
0.349697
0.409201
0.688089
0.684354
0.742179
0.684822
0.431978
0.689513
0.729655
0.684818
0.685854
0.689066
0.697177
0.686058
0.704222
0.704398
0.347547
0.696926
0.699858
0.687848
0.697275
0.689185
0.666095
0.35269
0.352801
0.682706
0.357283
0.363868
0.687399
0.346078
0.794895
0.696451
0.690546
0.692391
0.347164
0.687404
0.343151
0.343899
0.686173
0.696539
0.694632
0.337611
0.701481
0.691149
0.681186
0.689039
0.353187
0.688701
0.705392
0.694093
0.405857
0.709382
0.354454
0.686856
0.333909
0.353037
0.653354
0.477172
0.699832
0.706298
0.693074
0.342908
0.687681
0.426983
0.350198
0.686766
0.497081
0.356402
0.691406
0.370455
0.512138
0.712357
0.685544
0.687978
0.499168
0.568442
0.715283
0.693131
0.665958
0.703666
0.530964
0.687992
0.685001
0.715245
0.309346
0.351973
0.475166
0.699936
0.346192
0.720373
0.687561
0.662419
0.693374
0.632612
0.714161
0.704467
0.352111
0.687448
0.683019
0.626328
0.682775
0.70437
0.687582
0.686484
0.355403
0.340972
0.694736
0.585047
0.637604
0.696413
0.694223
0.693609
0.705059
0.702298
0.686689
0.683021
0.695215
0.352734
0.352717
0.348991
0.354953
0.557923
0.482896
0.628665
0.69749
0.705222
0.347698
0.692747
0.687769
0.337124
0.439148
0.557553
0.698278
0.347668
0.321834
0.343993
0.558207
0.686583
0.408878
0.350866
0.351472
0.366646
0.382343
0.357539
0.689414
0.69416
0.698618
0.343475
0.690549
0.672349
0.574203
0.380002
0.349911
0.686413
0.558196
0.355709
0.686448
0.355201
0.710637
0.34752
0.687614
0.34357
0.688803
0.701843
0.339799
0.547585
0.380712
0.691203
0.357483
0.67702
0.34812
0.52844
0.352234
0.671083
0.351206
0.671355
0.680328
0.572368
0.695038
0.381156
0.690075
0.686592
0.701739
0.670373
0.697651
0.350104
0.461285
0.339725
0.707936
0.403379
0.701612
0.543009
0.707154
0.70365
0.562102
0.702342
0.349396
0.343814
0.351582
0.529066
0.657784
0.694132
0.346776
0.363798
0.686091
0.457711
0.341631
0.663705
0.431685
0.35596
0.349147
0.690545
0.743899
0.680483
0.345784
0.689426
0.687459
0.330318
0.431173
0.688747
0.687026
0.670271
0.515668
0.467201
0.445543
0.339712
0.688873
0.680672
0.574083
0.71202
0.363704
0.63834
0.352574
0.634185
0.701544
0.350729
0.393588
0.683035
0.662938
0.702631
0.703944
0.70761
0.688354
0.70329
0.336444
0.354024
0.337575
0.351272
0.649269
0.578968
0.74424
0.351517
0.353653
0.488322
0.335942
0.693396
0.685434
0.355525
0.401321
0.696112
0.347236
0.713276
0.704546
0.687717
0.686676
0.648086
0.356581
0.342766
0.681321
0.351069
0.466155
0.420018
0.686549
0.688339
0.404734
0.352316
0.558179
0.349787
0.686569
0.707696
0.354757
0.341435
0.349602
0.696057
0.345215
0.558229
0.701652
0.664618
0.326703
0.52805
0.69929
0.690187
0.351882
0.690322
0.683993
0.340526
0.69735
0.687228
0.353558
0.357139
0.686769
0.349725
0.35098
0.69043
0.441172
0.69321
0.715822
0.710185
0.687243
0.701833
0.691971
0.685209
0.353547
0.464777
0.686091
0.69528
0.486194
0.693784
0.404121
0.697554
0.688005
0.631695
0.716091
0.460707
0.48092
0.692867
0.70011
0.684891
0.701568
0.695483
0.558057
0.693399
0.558184
0.688837
0.687359
0.688622
0.558125
0.686545
0.341404
0.686336
0.347211
0.687313
0.697163
0.704462
0.685678
0.710841
0.339847
0.340312
0.415269
0.352022
0.687674
0.345585
0.349719
0.703963
0.314369
0.704204
0.340545
0.689785
0.696137
0.356726
0.457197
0.360047
0.699104
0.34243
0.693809
0.698572
0.340173
0.68613
0.549088
0.367618
0.348284
0.331885
0.726259
0.357279
0.687289
0.63154
0.382358
0.689722
0.691926
0.708007
0.3552
0.644253
0.346454
0.690903
0.686188
0.686814
0.357046
0.69528
0.697641
0.683872
0.447903
0.699422
0.35612
0.353936
0.689383
0.478937
0.70552
0.448511
0.356554
0.475294
0.684461
0.347292
0.339244
0.335798
0.567974
0.554933
0.697266
0.350085
0.667395
0.695789
0.542765
0.487635
0.357001
0.550388
0.356955
0.352481
0.691846
0.354208
0.355063
0.691327
0.694786
0.336106
0.715461
0.335964
0.557493
0.349185
0.687697
0.664572
0.71058
0.688935
0.347995
0.352969
0.342782
0.686178
0.687093
0.566835
0.547143
0.451958
0.416004
0.691795
0.353698
0.693478
0.452287
0.675536
0.708647
0.341164
0.342294
0.353678
0.35231
0.344523
0.682616
0.688362
0.343866
0.695961
0.710336
0.383
0.354489
0.693537
0.356379
0.695805
0.471483
0.709599
0.716934
0.695305
0.557613
0.344355
0.702474
0.686573
0.68993
0.356843
0.679931
0.571179
0.362524
0.69954
0.693668
0.688945
0.689307
0.70344
0.689428
0.694943
0.687984
0.69088
0.354851
0.708521
0.353612
0.497786
0.689042
0.343249
0.689431
0.68069
0.363867
0.683376
0.35693
0.33908
0.689156
0.679253
0.695896
0.354844
0.689091
0.671694
0.349066
0.343214
0.688258
0.686993
0.44522
0.338436
0.702495
0.695863
0.357892
0.71158
0.702445
0.750742
0.339545
0.355829
0.340359
0.718548
0.375367
0.690561
0.712142
0.691922
0.674732
0.696204
0.354977
0.687889
0.618731
0.701967
0.66769
0.343673
0.353035
0.36376
0.709563
0.698406
0.469819
0.716802
0.354399
0.695658
0.68736
0.359477
0.683605
0.690719
0.693924
0.342383
0.346411
0.355727
0.698102
0.705956
0.670139
0.515835
0.695352
0.355493
0.717529
0.556729
0.69535
0.341609
0.713599
0.365557
0.681817
0.363986
0.693286
0.689218
0.34516
0.697541
0.500464
0.558147
0.703288
0.558205
0.68864
0.456118
0.691892
0.692654
0.686864
0.693638
0.492527
0.557451
0.349182
0.692926
0.363559
0.350682
0.370773
0.344028
0.356437
0.34272
0.70208
0.448524
0.350247
0.706524
0.697821
0.688692
0.414369
0.709089
0.712375
0.686597
0.343932
0.669799
0.686927
0.358638
0.340315
0.353171
0.705279
0.509868
0.354457
0.669585
0.315221
0.555493
0.506657
0.346602
0.492937
0.718706
0.357596
0.686246
0.360603
0.607595
0.441736
0.688734
0.439439
0.702684
0.557947
0.682094
0.486571
0.352792
0.688901
0.699033
0.341529
0.341167
0.686321
0.351269
0.709534
0.343683
0.548532
0.362358
0.689759
0.353136
0.701145
0.350114
0.687546
0.696323
0.700396
0.557879
0.349469
0.347785
0.410379
0.686823
0.703835
0.683886
0.660082
0.360937
0.702167
0.357472
0.686762
0.676325
0.442934
0.376524
0.705381
0.693003
0.348275
0.624012
0.689122
0.704556
0.70894
0.36178
0.721648
0.354452
0.703507
0.376723
0.686914
0.685865
0.68893
0.699303
0.383905
0.68932
0.356641
0.349476
0.686437
0.557822
0.600774
0.694073
0.557969
0.355828
0.718744
0.688656
0.693222
0.341363
0.464414
0.709687
0.344908
0.698027
0.688174
0.689802
0.688491
0.394196
0.483852
0.727692
0.346493
0.687828
0.691337
0.504259
0.688969
0.399915
0.682222
0.718183
0.718981
0.688929
0.346805
0.344494
0.694312
0.690051
0.359632
0.387294
0.350221
0.347395
0.351023
0.338562
0.349181
0.35744
0.69425
0.363199
0.338991
0.702187
0.609558
0.558218
0.449093
0.352742
0.69608
0.494205
0.587467
0.706442
0.435448
0.726083
0.682461
0.650321
0.690956
0.341351
0.69725
0.685021
0.338679
0.353847
0.446256
0.680445
0.662784
0.703705
0.686321
0.695552
0.692023
0.38036
0.697249
0.68497
0.688118
0.353378
0.693368
0.672713
0.376922
0.467335
0.34873
0.348325
0.352823
0.65411
0.712454
0.69448
0.352738
0.461233
0.70197
0.332885
0.69908
0.692674
0.689921
0.72202
0.694873
0.356941
0.347461
0.326361
0.643701
0.37404
0.694183
0.326533
0.686618
0.68645
0.696518
0.353323
0.480766
0.453941
0.696163
0.335612
0.353075
0.687586
0.690698
0.68635
0.68627
0.687673
0.709251
0.357286
0.668101
0.703008
0.525916
0.695596
0.700089
0.706897
0.480071
0.46865
0.692755
0.50529
0.681359
0.355051
0.687781
0.689408
0.406902
0.375154
0.690938
0.526932
0.700826
0.699184
0.35735
0.349589
0.56814
0.482569
0.42319
0.689059
0.688477
0.368685
0.690376
0.56813
0.686122
0.358214
0.654748
0.356804
0.68904
0.701275
0.708666
0.694322
0.587401
0.40032
0.402741
0.696788
0.354756
0.571759
0.378714
0.695661
0.351819
0.708516
0.703158
0.564772
0.357106
0.55823
0.556778
0.352267
0.688238
0.32817
0.690859
0.356313
0.342469
0.353123
0.698991
0.69011