# vtk DataFile Version 1.0
unstructured grid
ascii
DATASET UNSTRUCTURED_GRID
points 13672 float
0.0796578 -0.059106 0
0.00128732 0.00159165 0
0.00227961 -0.00102548 0
0.0791586 -0.0598787 0
-0.0546216 0.01 0
0.000495206 0.025 0
0.0800549 -0.035 0
0.135172 -0.08 0
-0.0546216 -0.0451168 0
0.000495206 -0.0301168 0
0.0800549 -0.0901168 0
0.135172 -0.135117 0
-0.0546216 -0.0451168 -0.00551168
0.000495206 -0.0301168 -0.00551168
0.0800549 -0.0901168 -0.00551168
0.135172 -0.135117 -0.00551168
0.135172 -0.08 -0.00551168
0.0800549 -0.035 -0.00551168
0.000495206 0.025 -0.00551168
-0.0546216 0.01 -0.00551168
0.00128732 0.00159165 -0.00551168
0.00227961 -0.00102548 -0.00551168
0.0791586 -0.0598787 -0.00551168
0.0796578 -0.059106 -0.00551168
0.00165953 -0.000990923 0
0.00119576 -0.000874076 0
0.000866021 -0.000641801 0
0.000645147 -0.000349912 0
0.00052235 -1.7281e-05 0
0.00049972 0.000348016 0
0.000601632 0.000737716 0
0.000861774 0.0011403 0
0.00157235 0.00183217 0
0.00188647 0.00206725 0
0.00222612 0.00230203 0
0.00258713 0.00254351 0
0.00296826 0.00279524 0
0.00337118 0.00305664 0
0.00379785 0.00332658 0
0.00425045 0.00360349 0
0.00473139 0.00388521 0
0.0052432 0.00416895 0
0.0057881 0.00445204 0
0.00636753 0.00473281 0
0.00698281 0.00500961 0
0.00763526 0.00528058 0
0.00832616 0.00554366 0
0.00905691 0.00579603 0
0.00982918 0.00603333 0
0.0106445 0.00625033 0
0.0115038 0.00644128 0
0.0124073 0.00660297 0
0.0133543 0.00673414 0
0.0143444 0.00683382 0
0.0153769 0.00690031 0
0.0164512 0.00693173 0
0.0175666 0.00692547 0
0.0187219 0.00687822 0
0.0199156 0.00678477 0
0.0211454 0.00663864 0
0.0224084 0.00643275 0
0.0237018 0.00616676 0
0.0250249 0.00584739 0
0.026375 0.00547298 0
0.0277479 0.00503752 0
0.0291386 0.00453545 0
0.0305433 0.0039653 0
0.0319572 0.0033256 0
0.0333681 0.00260019 0
0.034775 0.00179799 0
0.0361793 0.000930615 0
0.0375798 3.12222e-06 0
0.0389689 -0.000988429 0
0.0403357 -0.00205109 0
0.041675 -0.00318283 0
0.0429849 -0.00437751 0
0.0442643 -0.00562904 0
0.0455126 -0.00693089 0
0.0467314 -0.00827518 0
0.0479204 -0.00965638 0
0.0490661 -0.0110799 0
0.0501515 -0.0125519 0
0.0511696 -0.0140695 0
0.0521492 -0.0156071 0
0.0531202 -0.0171411 0
0.0540851 -0.0186663 0
0.0550431 -0.0201798 0
0.0559923 -0.0216793 0
0.0569311 -0.0231626 0
0.0578582 -0.0246273 0
0.0587723 -0.0260715 0
0.0596721 -0.027493 0
0.0605563 -0.02889 0
0.0614241 -0.0302609 0
0.0622742 -0.0316042 0
0.063106 -0.0329183 0
0.0639186 -0.034202 0
0.0647113 -0.0354543 0
0.0654835 -0.0366743 0
0.0662345 -0.0378613 0
0.0669642 -0.0390145 0
0.0676726 -0.0401333 0
0.0683597 -0.0412172 0
0.0690246 -0.0422665 0
0.0696662 -0.0432819 0
0.0702841 -0.0442636 0
0.0708793 -0.0452111 0
0.0714538 -0.0461237 0
0.072009 -0.047001 0
0.0725452 -0.0478434 0
0.0730611 -0.0486524 0
0.073556 -0.0494294 0
0.0740291 -0.0501756 0
0.0744812 -0.0508916 0
0.0749138 -0.0515773 0
0.0753285 -0.0522331 0
0.0757266 -0.0528592 0
0.076109 -0.0534564 0
0.0764753 -0.0540264 0
0.0768243 -0.054571 0
0.0771553 -0.0550919 0
0.0774679 -0.0555901 0
0.0777617 -0.0560669 0
0.0780369 -0.056523 0
0.0782958 -0.0569578 0
0.0785421 -0.0573703 0
0.0787786 -0.0577603 0
0.0790073 -0.0581279 0
0.0792295 -0.058474 0
0.0794462 -0.0587995 0
0.0798803 -0.0594162 0
0.0800272 -0.0596588 0
0.0800357 -0.0598891 0
0.0799275 -0.0600784 0
0.0797205 -0.0601773 0
0.0794593 -0.0601051 0
0.0789155 -0.0596491 0
0.0786707 -0.0593963 0
0.0784111 -0.0591319 0
0.0781372 -0.0588542 0
0.0778566 -0.0585548 0
0.0775715 -0.0582308 0
0.0772803 -0.0578828 0
0.0769832 -0.0575099 0
0.0766822 -0.0571097 0
0.0763801 -0.0566796 0
0.0760759 -0.0562196 0
0.0757623 -0.0557337 0
0.0754359 -0.0552232 0
0.0750951 -0.0546879 0
0.0747379 -0.054128 0
0.0743626 -0.0535435 0
0.0739688 -0.0529338 0
0.0735559 -0.0522981 0
0.0731238 -0.0516357 0
0.0726718 -0.050946 0
0.0721991 -0.0502288 0
0.0717046 -0.049484 0
0.0711872 -0.0487117 0
0.0706461 -0.047912 0
0.0700804 -0.0470849 0
0.0694892 -0.0462308 0
0.0688718 -0.0453499 0
0.0682271 -0.0444431 0
0.0675544 -0.043511 0
0.0668527 -0.0425546 0
0.0661215 -0.0415748 0
0.06536 -0.040573 0
0.0645676 -0.0395504 0
0.0637439 -0.0385087 0
0.0628887 -0.0374493 0
0.062002 -0.0363741 0
0.0610838 -0.0352847 0
0.0601345 -0.0341831 0
0.0591547 -0.033071 0
0.0581456 -0.0319502 0
0.0571083 -0.0308224 0
0.0560444 -0.0296893 0
0.0549562 -0.028552 0
0.053845 -0.0274126 0
0.0527113 -0.0262746 0
0.051554 -0.0251427 0
0.0503724 -0.0240222 0
0.0491675 -0.0229164 0
0.047941 -0.0218282 0
0.0466955 -0.0207597 0
0.0454337 -0.0197126 0
0.0441592 -0.0186878 0
0.0428751 -0.0176863 0
0.0415841 -0.0167097 0
0.0402878 -0.0157609 0
0.0389879 -0.0148428 0
0.0376864 -0.0139575 0
0.0363853 -0.013107 0
0.0350871 -0.0122931 0
0.0337942 -0.0115164 0
0.0325095 -0.0107772 0
0.0312357 -0.0100756 0
0.0299758 -0.00941024 0
0.0287337 -0.00877784 0
0.0275126 -0.00817571 0
0.0263139 -0.00760375 0
0.0251376 -0.00706528 0
0.0239829 -0.0065649 0
0.0228537 -0.00609619 0
0.0217522 -0.00565563 0
0.0206795 -0.00524226 0
0.0196364 -0.00485507 0
0.0186233 -0.00449318 0
0.0176408 -0.00415577 0
0.016689 -0.00384204 0
0.0157682 -0.00355115 0
0.0148783 -0.00328218 0
0.0140192 -0.00303468 0
0.0131906 -0.00280795 0
0.0123925 -0.00260016 0
0.0116246 -0.00241012 0
0.0108864 -0.00223769 0
0.0101774 -0.00208212 0
0.00949701 -0.00194206 0
0.00884483 -0.0018163 0
0.0082202 -0.0017039 0
0.00762247 -0.00160391 0
0.00705097 -0.00151528 0
0.006505 -0.00143697 0
0.0059838 -0.00136806 0
0.00548662 -0.00130772 0
0.00501265 -0.00125519 0
0.00456114 -0.00120954 0
0.00413136 -0.00116914 0
0.00372257 -0.00113251 0
0.00333398 -0.00109853 0
0.00296466 -0.00106798 0
0.00261363 -0.0010431 0
-0.052721 -0.0445996 0
-0.0508204 -0.0440823 0
-0.0489199 -0.0435651 0
-0.0470193 -0.0430478 0
-0.0451187 -0.0425306 0
-0.0432181 -0.0420134 0
-0.0413175 -0.0414961 0
-0.039417 -0.0409789 0
-0.0375164 -0.0404616 0
-0.0356158 -0.0399444 0
-0.0337152 -0.0394271 0
-0.0318146 -0.0389099 0
-0.0299141 -0.0383927 0
-0.0280135 -0.0378754 0
-0.0261129 -0.0373582 0
-0.0242123 -0.0368409 0
-0.0223117 -0.0363237 0
-0.0204112 -0.0358065 0
-0.0185106 -0.0352892 0
-0.01661 -0.034772 0
-0.0147094 -0.0342547 0
-0.0128088 -0.0337375 0
-0.0109083 -0.0332202 0
-0.00900769 -0.032703 0
-0.00710711 -0.0321858 0
-0.00520653 -0.0316685 0
-0.00330595 -0.0311513 0
-0.00140537 -0.030634 0
0.00190689 -0.0299614 0
0.00332271 -0.0298498 0
0.00474133 -0.0297825 0
0.00616136 -0.0297597 0
0.0075814 -0.0297814 0
0.00900007 -0.0298477 0
0.010416 -0.0299583 0
0.0118278 -0.0301127 0
0.0132342 -0.0303103 0
0.0146339 -0.0305504 0
0.0160259 -0.0308322 0
0.0174091 -0.0311546 0
0.0187824 -0.0315166 0
0.020145 -0.031917 0
0.0214961 -0.0323546 0
0.0228351 -0.032828 0
0.0241613 -0.0333361 0
0.0254744 -0.0338774 0
0.0267738 -0.0344507 0
0.0280592 -0.0350545 0
0.0293306 -0.0356877 0
0.0305875 -0.0363488 0
0.0318301 -0.0370367 0
0.0330581 -0.0377501 0
0.0342717 -0.0384879 0
0.0354708 -0.0392489 0
0.0366556 -0.0400321 0
0.0378262 -0.0408363 0
0.0389828 -0.0416607 0
0.0401254 -0.0425042 0
0.0412543 -0.0433659 0
0.0423698 -0.0442451 0
0.043472 -0.0451408 0
0.0445612 -0.0460523 0
0.0456375 -0.0469789 0
0.0467013 -0.0479199 0
0.0477529 -0.0488746 0
0.0487923 -0.0498424 0
0.04982 -0.0508227 0
0.0508362 -0.051815 0
0.051841 -0.0528187 0
0.0528348 -0.0538333 0
0.0538178 -0.0548584 0
0.0547903 -0.0558935 0
0.0557524 -0.0569382 0
0.0567045 -0.0579922 0
0.0576467 -0.0590549 0
0.0585792 -0.0601261 0
0.0595024 -0.0612055 0
0.0604163 -0.0622926 0
0.0613212 -0.0633873 0
0.0622174 -0.0644891 0
0.0631049 -0.0655979 0
0.0639841 -0.0667134 0
0.064855 -0.0678353 0
0.0657179 -0.0689633 0
0.0665729 -0.0700974 0
0.0674202 -0.0712372 0
0.06826 -0.0723826 0
0.0690925 -0.0735333 0
0.0699178 -0.0746892 0
0.070736 -0.0758501 0
0.0715473 -0.0770159 0
0.0723518 -0.0781863 0
0.0731498 -0.0793612 0
0.0739412 -0.0805405 0
0.0747264 -0.081724 0
0.0755053 -0.0829116 0
0.0762781 -0.0841033 0
0.0770449 -0.0852987 0
0.0778059 -0.0864979 0
0.0785611 -0.0877007 0
0.0793108 -0.088907 0
0.0814681 -0.0912706 0
0.0828814 -0.0924245 0
0.0842946 -0.0935783 0
0.0857079 -0.0947322 0
0.0871211 -0.095886 0
0.0885344 -0.0970399 0
0.0899476 -0.0981937 0
0.0913609 -0.0993476 0
0.0927741 -0.100501 0
0.0941874 -0.101655 0
0.0956006 -0.102809 0
0.0970139 -0.103963 0
0.0984272 -0.105117 0
0.0998404 -0.106271 0
0.101254 -0.107424 0
0.102667 -0.108578 0
0.10408 -0.109732 0
0.105493 -0.110886 0
0.106907 -0.11204 0
0.10832 -0.113194 0
0.109733 -0.114348 0
0.111146 -0.115501 0
0.11256 -0.116655 0
0.113973 -0.117809 0
0.115386 -0.118963 0
0.116799 -0.120117 0
0.118213 -0.121271 0
0.119626 -0.122424 0
0.121039 -0.123578 0
0.122452 -0.124732 0
0.123866 -0.125886 0
0.125279 -0.12704 0
0.126692 -0.128194 0
0.128105 -0.129348 0
0.129519 -0.130501 0
0.130932 -0.131655 0
0.132345 -0.132809 0
0.133758 -0.133963 0
0.135172 -0.133216 0
0.135172 -0.131316 0
0.135172 -0.129415 0
0.135172 -0.127514 0
0.135172 -0.125614 0
0.135172 -0.123713 0
0.135172 -0.121813 0
0.135172 -0.119912 0
0.135172 -0.118012 0
0.135172 -0.116111 0
0.135172 -0.11421 0
0.135172 -0.11231 0
0.135172 -0.110409 0
0.135172 -0.108509 0
0.135172 -0.106608 0
0.135172 -0.104708 0
0.135172 -0.102807 0
0.135172 -0.100906 0
0.135172 -0.0990058 0
0.135172 -0.0971052 0
0.135172 -0.0952046 0
0.135172 -0.0933041 0
0.135172 -0.0914035 0
0.135172 -0.0895029 0
0.135172 -0.0876023 0
0.135172 -0.0857017 0
0.135172 -0.0838012 0
0.135172 -0.0819006 0
0.133758 -0.0788462 0
0.132345 -0.0776923 0
0.130932 -0.0765385 0
0.129519 -0.0753846 0
0.128105 -0.0742308 0
0.126692 -0.0730769 0
0.125279 -0.0719231 0
0.123866 -0.0707692 0
0.122452 -0.0696154 0
0.121039 -0.0684615 0
0.119626 -0.0673077 0
0.118213 -0.0661538 0
0.116799 -0.065 0
0.115386 -0.0638462 0
0.113973 -0.0626923 0
0.11256 -0.0615385 0
0.111146 -0.0603846 0
0.109733 -0.0592308 0
0.10832 -0.0580769 0
0.106907 -0.0569231 0
0.105493 -0.0557692 0
0.10408 -0.0546154 0
0.102667 -0.0534615 0
0.101254 -0.0523077 0
0.0998404 -0.0511538 0
0.0984272 -0.05 0
0.0970139 -0.0488462 0
0.0956006 -0.0476923 0
[...]
CELL_DATA 13116
SCALARS rho float
LOOKUP_TABLE default
0.5977
0.679427
0.500227
0.68717
0.689003
0.680427
0.375221
0.691378
0.5977
0.692516
0.359473
0.505923
0.689251
0.444909
0.462537
0.680447
0.5977
0.597656
0.680398
0.358374
0.5977
0.506978
0.485518
0.636153
0.5977
0.69487
0.692759
0.563865
0.5977
0.5977
0.68022
0.493221
0.5977
0.597699
0.381298
0.5977
0.5977
0.680427
0.680404
0.691236
0.680336
0.690539
0.5977
0.474618
0.68024
0.680604
0.685962
0.680073
0.494247
0.5977
0.689464
0.5977
0.403869
0.5977
0.5977
0.5977
0.472205
0.675572
0.5977
0.479064
0.448567
0.690242
0.679049
0.680403
0.680303
0.422986
0.680463
0.5977
0.680359
0.68018
0.461842
0.5977
0.512273
0.451759
0.639386
0.428609
0.597702
0.686606
0.361412
0.597703
0.59712
0.697224
0.696216
0.680159
0.686876
0.582503
0.387602
0.5977
0.697475
0.358383
0.503803
0.68065
0.699643
0.695641
0.5977
0.5977
0.5977
0.676787
0.668141
0.5977
0.5977
0.597703
0.680377
0.597697
0.703491
0.488389
0.561888
0.5977
0.524176
0.5977
0.5977
0.697203
0.5977
0.597696
0.597704
0.680175
0.409173
0.584756
0.686421
0.687992
0.5977
0.52639
0.680459
0.504112
0.695835
0.597723
0.39355
0.597699
0.50064
0.5977
0.68734
0.67997
0.597716
0.498882
0.597703
0.5977
0.558197
0.68792
0.5977
0.688835
0.5977
0.681698
0.5977
0.5977
0.616734
0.461744
0.378884
0.696656
0.687608
0.690568
0.5977
0.680162
0.680123
0.391728
0.690975
0.689787
0.499664
0.5977
0.676519
0.5977
0.639825
0.359487
0.688574
0.502359
0.532962
0.68951
0.696085
0.597701
0.379009
0.593823
0.584686
0.558247
0.459269
0.597699
0.680449
0.485198
0.477323
0.510893
0.696806
0.680672
0.358437
0.597427
0.5977
0.5977
0.680516
0.5977
0.391291
0.680158
0.698642
0.5977
0.5977
0.696556
0.680046
0.510824
0.695987
0.68036
0.694132
0.680056
0.697699
0.597697
0.597699
0.5977
0.597699
0.458847
0.685959
0.680571
0.5977
0.5977
0.46974
0.358038
0.425435
0.680396
0.507412
0.358073
0.358192
0.396515
0.580008
0.68014
0.695923
0.578023
0.464613
0.680517
0.5977
0.358493
0.5977
0.690204
0.596149
0.569334
0.680449
0.56942
0.691503
0.494653
0.680413
0.5977
0.662759
0.69457
0.680122
0.502708
0.597725
0.5977
0.606068
0.680251
0.55817
0.680217
0.69298
0.48247
0.688822
0.690332
0.671286
0.367196
0.49823
0.680293
0.685568
0.680507
0.680527
0.5977
0.5977
0.358614
0.517906
0.597726
0.467468
0.701482
0.693735
0.597702
0.371581
0.680205
0.404705
0.582335
0.703993
0.366692
0.69595
0.689684
0.564412
0.676251
0.500015
0.557672
0.590055
0.676436
0.685181
0.358981
0.379742
0.512567
0.5977
0.522085
0.515213
0.553441
0.54408
0.680553
0.412957
0.696603
0.688771
0.380847
0.358361
0.399577
0.597723
0.536177
0.5977
0.5977
0.69912
0.364104
0.680249
0.5977
0.524626
0.478013
0.680449
0.685237
0.680121
0.396126
0.680454
0.597696
0.68011
0.690035
0.69048
0.689976
0.5143
0.680455
0.442259
0.680465
0.691677
0.5977
0.358508
0.551856
0.68987
0.399884
0.694837
0.690401
0.594988
0.5977
0.693001
0.388913
0.680359
0.699889
0.440803
0.687186
0.580374
0.5977
0.695392
0.582178
0.5977
0.371306
0.585507
0.556148
0.680075
0.640223
0.694155
0.564469
0.565651
0.684315
0.388263
0.685438
0.698923
0.596853
0.558134
0.388558
0.491339
0.679066
0.5977
0.5977
0.385081
0.503205
0.688653
0.688893
0.373849
0.688882
0.423953
0.493253
0.680327
0.694485
0.5977
0.358283
0.683647
0.680157
0.680412
0.679316
0.684993
0.5977
0.595181
0.458576
0.358466
0.680413
0.358509
0.5977
0.594642
0.507536
0.562209
0.5977
0.511988
0.383494
0.679392
0.512818
0.690573
0.5977
0.680436
0.5977
0.688763
0.495352
0.377354
0.597697
0.579856
0.679125
0.5977
0.680377
0.5977
0.618336
0.5977
0.69777
0.5977
0.5977
0.682956
0.597701
0.68047
0.597726
0.5977
0.5977
0.497555
0.5977
0.5977
0.401671
0.680415
0.565454
0.516355
0.358382
0.358226
0.382666
0.5977
0.421785
0.510704
0.6805
0.422216
0.5977
0.358299
0.680459
0.658194
0.56582
0.499244
0.679244
0.59771
0.358307
0.382075
0.358402
0.527149
0.377881
0.358399
0.523549
0.584731
0.358056
0.597703
0.560532
0.698014
0.597708
0.503299
0.597106
0.465106
0.358331
0.467477
0.689888
0.591515
0.5977
0.5977
0.416691
0.5977
0.697091
0.581655
0.5977
0.5977
0.5977
0.37657
0.66286
0.584409
0.685786
0.679221
0.528833
0.410407
0.698524
0.585442
0.581683
0.685623
0.561391
0.5977
0.664194
0.358349
0.472482
0.446052
0.597699
0.473801
0.426549
0.458744
0.439556
0.688565
0.688982
0.597722
0.5977
0.597719
0.69568
0.571301
0.414697
0.5977
0.5317
0.680408
0.545425
0.571495
0.597717
0.680109
0.696446
0.5977
0.595314
0.405322
0.5977
0.690969
0.680259
0.5977
0.7107
0.702886
0.358059
0.644191
0.5977
0.5977
0.553558
0.534041
0.597704
0.696141
0.5977
0.691555
0.698874
0.695877
0.599875
0.5977
0.680363
0.358325
0.680067
0.559309
0.476772
0.358189
0.687412
0.680633
0.547441
0.693781
0.5977
0.358511
0.680228
0.681922
0.679534
0.559957
0.409808
0.686751
0.35809
0.358318
0.473918
0.358118
0.68043
0.434132
0.686362
0.554917
0.679453
0.689436
0.680153
0.689193
0.358225
0.358392
0.680726
0.691651
0.5977
0.688887
0.690735
0.594292
0.384515
0.539895
0.68005
0.5977
0.358286
0.597642
0.506875
0.694327
0.680472
0.551502
0.512494
0.698337
0.583964
0.680013
0.5977
0.49462
0.569148
0.5977
0.589169
0.506461
0.696597
0.695825
0.680698
0.415364
0.55755
0.462784
0.653518
0.5977
0.358338
0.578672
0.517123
0.660461
0.524764
0.369941
0.58769
0.680347
0.679819
0.367243
0.514592
0.358354
0.680394
0.517422
0.680248
0.458924
0.5977
0.69072
0.59771
0.49819
0.489709
0.59477
0.543844
0.696118
0.405741
0.429017
0.680147
0.427676
0.680267
0.694118
0.673006
0.358179
0.680656
0.695102
0.693276
0.680109
0.696246
0.679083
0.479338
0.680259
0.579473
0.680543
0.359548
0.692582
0.5977
0.386172
0.680175
0.687399
0.394165
0.5977
0.502896
0.457669
0.680514
0.687454
0.507667
0.46843
0.363626
0.479907
0.694969
0.627651
0.410752
0.359412
0.68538
0.689914
0.5977
0.693482
0.680416
0.358815
0.693129
0.587519
0.689376
0.592838
0.5977
0.595162
0.680505
0.5977
0.5977
0.567382
0.554779
0.680031
0.5977
0.5977
0.692437
0.460428
0.632755
0.690985
0.571689
0.5977
0.693581
0.591057
0.680143
0.5977
0.550824
0.68999
0.5977
0.501552
0.67994
0.510591
0.698895
0.451223
0.680295
0.679096
0.556123
0.680441
0.689837
0.686947
0.5977
0.678703
0.5977
0.544209
0.597699
0.509533
0.44968
0.558244
0.5977
0.679383
0.687526
0.358333
0.548393
0.679959
0.690587
0.679022
0.689895
0.358365
0.5977
0.689911
0.358268
0.511184
0.686529
0.680161
0.698893
0.484817
0.5977
0.585682
0.680493
0.706447
0.680436
0.680415
0.358223
0.680122
0.697052
0.697992
0.693175
0.680499
0.578854
0.684503
0.358048
0.5925
0.690296
0.594441
0.664081
0.680365
0.689393
0.5977
0.597729
0.5977
0.5977
0.358049
0.358309
0.370277
0.358145
0.679502
0.619526
0.680404
0.547657
0.357949
0.680294
0.5977
0.437533
0.550887
0.596981
0.597704
0.67996
0.679993
0.590562
0.358119
0.35813
0.557257
0.502936
0.358159
0.410683
0.680517
0.586315
0.35829
0.5977
0.680223
0.697281
0.680592
0.680062
0.411393
0.441804
0.366236
0.5977
0.591032
0.49746
0.5977
0.595946
0.697132
0.6804
0.488857
0.358129
0.691844
0.358228
0.680522
0.679409
0.680362
0.507673
0.358464
0.699523
0.68028
0.5977
0.437107
0.680059
0.680524
0.5977
0.690294
0.69065
0.553989
0.709465
0.358471
0.680064
0.680291
0.5977
0.68011
0.558207
0.697767
0.552482
0.680104
0.426667
0.453178
0.358193
0.680536
0.5977
0.358198
0.680204
0.685678
0.503623
0.5977
0.582259
0.5977
0.5977
0.499717
0.689634
0.579632
0.358262
0.597699
0.680206
0.476514
0.695773
0.432933
0.485631
0.5977
0.5977
0.597236
0.680343
0.374984
0.688324
0.468444
0.493659
0.680258
0.358271
0.5977
0.505015
0.5977
0.5977
0.554826
0.696157
0.457534
0.433834
0.597701
0.5977
0.679156
0.5977
0.5977
0.680413
0.6995
0.5977
0.5977
0.696151
0.693487
0.680142
0.557968
0.358313
0.597699
0.695931
0.695154
0.59238
0.680439
0.5977
0.597696
0.506278
0.5977
0.597703
0.557847
0.659356
0.58457
0.593649
0.680539
0.597704
0.497997
0.5977
0.597104
0.689713
0.680223
0.542409
0.69621
0.688333
0.462212
0.492792
0.397311
0.558184
0.359288
0.5977
0.679936
0.5977
0.530754
0.68058
0.458295
0.5977
0.680264
0.680448
0.5977
0.680361
0.5977
0.597604
0.5977
0.680578
0.454414
0.680057
0.680171
0.5977
0.565486
0.672676
0.515953
0.460576
0.480592
0.690182
0.358281
0.558427
0.366349
0.691842
0.413445
0.594827
0.480145
0.68395
0.6896
0.5977
0.534449
0.5977
0.680033
0.358308
0.5977
0.689345
0.496301
0.5977
0.679299
0.69017
0.680454
0.528549
0.5977
0.682023
0.680468
0.592902
0.358335
0.597719
0.680321
0.557843
0.587256
0.558147
0.5977
0.679901
0.5977
0.691114
0.358289
0.461647
0.557599
0.688259
0.680353
0.429632
0.680027
0.5977
0.5977
0.450534
0.577097
0.688907
0.68852
0.5977
0.589447
0.680364
0.587927
0.373067
0.5977
0.590091
0.37437
0.502698
0.444675
0.697818
0.520752
0.358315
0.679997
0.5977
0.692832
0.5977
0.38129
0.381286
0.689444
0.455323
0.422362
0.680319
0.505554
0.575398
0.5977
0.696445
0.680143
0.358004
0.595717
0.360905
0.682154
0.491427
0.680425
0.42505
0.680162
0.694789
0.680132
0.708134
0.67988
0.70645
0.680083
0.68921
0.680329
0.4295
0.359272
0.680094
0.680506
0.597107
0.698006
0.5977
0.680433
0.5977
0.56005
0.680042
0.69073
0.680155
0.37104
0.679955
0.530894
0.680124
0.594506
0.5977
0.680151
0.501282
0.679324
0.358248
0.597698
0.678319
0.415908
0.5977
0.558235
0.693501
0.386795
0.680436
0.358216
0.506966
0.508102
0.358233
0.5977
0.463459
0.5977
0.680098
0.589444
0.512327
0.594055
0.5977
0.5977
0.632185
0.358205
0.406689
0.370632
0.478062
0.533063
0.5977
0.697637
0.568097
0.680494
0.680079
0.441341
0.690611
0.5977
0.680104
0.362396
0.628826
0.6787
0.685681
0.691039
0.473307
0.68022
0.687339
0.680002
0.5977
0.680337
0.517569
0.508884
0.680156
0.5977
0.358394
0.680282
0.495938
0.5977
0.5977
0.699165
0.699278
0.503297
0.698661
0.597722
0.37119
0.5977
0.686799
0.688642
0.688666
0.5977
0.507582
0.689142
0.476416
0.59677
0.689532
0.661856
0.67956
0.367243
0.521207
0.690078
0.526007
0.686763
0.5977
0.594215
0.541151
0.689795
0.503372
0.680128
0.68667
0.597701
0.504505
0.457507
0.597698
0.5977
0.5977
0.597699
0.680095
0.656665
0.697002
0.558215
0.680493
0.389831
0.537554
0.686517
0.680243
0.597583
0.592285
0.452485
0.610781
0.455167
0.680455
0.5977
0.589213
0.679794
0.357895
0.695093
0.502088
0.688825
0.495854
0.680799
0.680647
0.502699
0.695988
0.5977
0.508477
0.680313
0.680118
0.5977
0.461346
0.588873
0.597696
0.694732
0.585507
0.556839
0.5977
0.679512
0.680192
0.531832
0.5977
0.680646
0.582912
0.680094
0.680512
0.540178
0.680466
0.677799
0.493457
0.5977
0.373978
0.5977
0.380759
0.486605
0.695902
0.358416
0.358412
0.452836
0.680475
0.680239
0.597722
0.680434
0.583709
0.59165
0.358233
0.680264
0.595102
0.680459
0.680168
0.5977
0.680455
0.597699
0.680476
0.680063
0.535431
0.5977
0.5977
0.5977
0.680425
0.595252
0.597702
0.689266
0.358523
0.5977
0.586157
0.680376
0.42792
0.509198
0.587517
0.680224
0.358286
0.690325
0.597561
0.558283
0.690007
0.645683
0.358482
0.689777
0.358235
0.506921
0.696266
0.639197
0.690705
0.698126
0.491247
0.385832
0.362734
0.680921
0.68007
0.585493
0.69621
0.421649
0.386175
0.434628
0.69714
0.590678
0.689418
0.680045
0.5977
0.688506
0.680509
0.5977
0.5977
0.58164
0.506491
0.358318
0.640679
0.625607
0.435074
0.5977
0.69707
0.5977
0.526202
0.5977
0.665873
0.540224
0.60564
0.5977
0.358071
0.680517
0.680476
0.358457
0.680159
0.417759
0.679527
0.693544
0.679892
0.459116
0.588536
0.5977
0.544476
0.581717
0.679553
0.549717
0.680678
0.680281
0.69632
0.597691
0.597744
0.680221
0.5977
0.680354
0.563039
0.688118
0.482237
0.453971
0.679863
0.680065
0.680378
0.528171
0.680256
0.5977
0.63249
0.411924
0.422018
0.358279
0.688916
0.369423
0.427299
0.49528
0.5977
0.423355
0.5414
0.583009
0.680621
0.358241
0.680389
0.680354
0.692212
0.391766
0.680129
0.5977
0.68054
0.578581
0.5977
0.382463
0.358509
0.680434
0.358264
0.5977
0.680052
0.556992
0.358231
0.55267
0.389949
0.5977
0.558108
0.530381
0.680398
0.680448
0.595404
0.358311
0.472987
0.557072
0.69222
0.358243
0.558215
0.5977
0.680353
0.68054
0.358562
0.5977
0.482011
0.5977
0.5977
0.691359
0.5977
0.5977
0.5977
0.596278
0.68658
0.365021
0.597723
0.430337
0.597706
0.5977
0.659381
0.358173
0.587182
0.683472
0.680097
0.680478
0.358328
0.691221
0.5977
0.5977
0.595685
0.535971
0.358338
0.541498
0.680188
0.680222
0.5977
0.695971
0.555852
0.69379
0.5977
0.680141
0.680421
0.693336
0.690726
0.680419
0.67278
0.688309
0.532132
0.680362
0.688833
0.680555
0.679703
0.679969
0.5977
0.358503
0.498799
0.5977
0.358163
0.595539
0.691429
0.446018
0.5977
0.680192
0.680119
0.679977
0.522819
0.691629
0.509443
0.447718
0.680417
0.680199
0.680412
0.400581
0.688573
0.68032
0.597705
0.680085
0.495833
0.680494
0.690103
0.678586
0.597705
0.618577
0.358645
0.687139
0.424383
0.358486
0.5977
0.596509
0.689737
0.685547
0.680473
0.487769
0.680361
0.597715
0.452049
0.697749
0.593096
0.358362
0.680322
0.509569
0.597702
0.5977
0.678443
0.700404
0.594484
0.5977
0.5977
0.680161
0.5977
0.688684
0.597699
0.690025
0.696016
0.5977
0.484515
0.360709
0.595116
0.688278
0.516772
0.5977
0.689863
0.5977
0.680137
0.5977
0.5977
0.597707
0.362909
0.691181
0.699445
0.5977
0.700293
0.689274
0.696316
0.680183
0.35822
0.437477
0.680756
0.5977
0.5977
0.688936
0.680206
0.680352
0.696662
0.693858
0.5977
0.659397
0.691792
0.441505
0.513835
0.432962
0.572081
0.559868
0.597719
0.5977
0.680319
0.597634
0.515876
0.679928
0.686632
0.406497
0.574304
0.585131
0.680793
0.545975
0.487339
0.475249
0.558221
0.695338
0.597698
0.388902
0.358143
0.49917
0.581612
0.358234
0.692258
0.680132
0.678172
0.366812
0.680503
0.5977
0.5977
0.552182
0.358312
0.697663
0.559849
0.358317
0.680419
0.35839
0.596732
0.53109
0.691898
0.36859
0.690889
0.689204
0.385736
0.5977
0.530136
0.690517
0.50709
0.5977
0.490925
0.5977
0.380589
0.5977
0.358276
0.680488
0.680071
0.5977
0.680238
0.557091
0.680247
0.680532
0.689036
0.5977
0.590926
0.358332
0.5977
0.431612
0.697925
0.541843
0.688259
0.5977
0.601542
0.689779
0.5977
0.684507
0.453589
0.442087
0.440308
0.5977
0.5977
0.680543
0.362663
0.509195
0.680308
0.571636
0.501099
0.5977
0.576766
0.358311
0.496459
0.690458
0.5977
0.5977
0.475638
0.68082
0.680336
0.496109
0.556761
0.697277
0.68002
0.5977
0.597713
0.57715
0.563322
0.387012
0.694904
0.597701
0.5977
0.5977
0.474681
0.5977
0.357962
0.680214
0.687639
0.358333
0.522894
0.597702
0.5977
0.68879
0.688207
0.692862
0.69053
0.689204
0.403453
0.503216
0.435633
0.358612
0.5977
0.679266
0.5977
0.358147
0.358424
0.5977
0.500868
0.680317
0.675967
0.358164
0.551152
0.680155
0.506894
0.5977
0.687239
0.6832
0.6802
0.5977
0.358394
0.376396
0.65102
0.3583
0.597696
0.597724
0.680261
0.679675
0.534432
0.358066
0.558325
0.358407
0.68038
0.698312
0.358441
0.464948
0.40995
0.680487
0.412905
0.558238
0.679198
0.5977
0.493096
0.597702
0.686652
0.680666
0.368948
0.680398
0.5977
0.509818
0.683376
0.689255
0.364908
0.358472
0.699503
0.358839
0.358662
0.680452
0.561211
0.680304
0.5977
0.705197
0.5977
0.687963
0.680345
0.680264
0.364441
0.575638
0.597478
0.680676
0.587925
0.690238
0.562309
0.679639
0.699973
0.5977
0.5977
0.5977
0.597638
0.679922
0.68705
0.69712
0.6894
0.680141
0.550501
0.690468
0.55832
0.696143
0.697516
0.693549
0.558717
0.680256
0.511068
0.696796
0.529205
0.686668
0.68011
0.678285
0.706601
0.597704
0.456928
0.389036
0.547626
0.365333
0.676512
0.36305
0.364938
0.592447
0.487334
0.669346
0.383219
0.680642
0.680293
0.358382
0.57081
0.592298
0.689067
0.470385
0.680572
0.679434
0.3966
0.697657
0.5977
0.597727
0.555562
0.497013
0.5977
0.358459
0.691513
0.5977
0.537671
0.680473
0.680366
0.693144
0.358316
0.5977
0.49086
0.680712
0.680422
0.67962
0.358236
0.680761
0.687437
0.698562
0.595324
0.689
0.358478
0.358059
0.694057
0.597721
0.690881
0.5977
0.358296
0.586049
0.701091
0.528727
0.511868
0.454582
0.5977
0.663909
0.680314
0.442538
0.5977
0.680251
0.5977
0.5977
0.589582
0.5977
0.358393
0.358112
0.680184
0.358117
0.358188
0.689893
0.687902
0.410557
0.597706
0.40659
0.56065
0.570755
0.697418
0.680277
0.597707
0.680523
0.477814
0.357902
0.502992
0.680389
0.698137
0.5977
0.5977
0.567585
0.546115
0.680214
0.362571
0.680235
0.56743
0.680365
0.5977
0.383741
0.485732
0.358148
0.358122
0.501778
0.597704
0.679116
0.366727
0.680312
0.5977
0.544856
0.455696
0.688719
0.358252
0.680654
0.579655
0.597651
0.5977
0.680264
0.66911
0.443897
0.693567
0.687027
0.690228
0.358474
0.590549
0.5977
0.592796
0.688749
0.5977
0.692449
0.680408
0.689359
0.694563
0.689967
0.68053
0.680181
0.358271
0.696408
0.358187
0.5977
0.679629
0.500929
0.678938
0.708576
0.503221
0.699961
0.358477
0.504736
0.695969
0.645504
0.688103
0.357987
0.679654
0.5977
0.562952
0.367488
0.695872
0.680438
0.572269
0.467213
0.67986
0.688097
0.358367
0.5977
0.689017
0.5977
0.401364
0.35845
0.496587
0.5977
0.497658
0.680206
0.597704
0.680319
0.5977
0.680601
0.358015
0.698502
0.5977
0.688926
0.5977
0.512019
0.366686
0.480635
0.681303
0.678944
0.578012
0.5977
0.597088
0.5977
0.683297
0.464279
0.5977
0.68007
0.5977
0.371884
0.377181
0.577136
0.685879
0.690802
0.5977
0.597713
0.680381
0.358335
0.5977
0.59069
0.680609
0.375402
0.5977
0.50845
0.705157
0.49015
0.680472
0.695831
0.470141
0.684771
0.5977
0.558182
0.5977
0.55818
0.69013
0.597718
0.68024
0.680281
0.680205
0.680759
0.590741
0.587064
0.423072
0.680336
0.476116
0.358559
0.490226
0.496522
0.358251
0.370618
0.68972
0.564972
0.432406
0.5977
0.68648
0.67907
0.597696
0.597704
0.5977
0.680263
0.522989
0.5977
0.680466
0.539794
0.478566
0.357872
0.5977
0.597554
0.358388
0.5977
0.490798
0.664311
0.596862
0.399477
0.594316
0.5977
0.577497
0.680481
0.466183
0.5977
0.570789
0.694279
0.580913
0.5977
0.587973
0.69595
0.5977
0.358461
0.695463
0.689929
0.482904
0.507462
0.680342
0.358244
0.592905
0.366494
0.5977
0.478581
0.680449
0.504924
0.689187
0.358504
0.687393
0.680486
0.687474
0.561012
0.421055
0.498941
0.597697
0.695852
0.594413
0.701172
0.5977
0.50456
0.681796
0.588328
0.698604
0.593082
0.597696
0.539364
0.689497
0.680561
0.487936
0.680504
0.695008
0.68852
0.702625
0.469975
0.5977
0.358303
0.687867
0.501228
0.680253
0.697943
0.696432
0.689327
0.542235
0.688731
0.358398
0.36788
0.680404
0.572292
0.5977
0.680187
0.564427
0.358443
0.596636
0.694821
0.69041
0.506897
0.596404
0.5977
0.366107
0.680261
0.690563
0.679844
0.693594
0.540374
0.597697
0.5977
0.477795
0.699719
0.690936
0.5977
0.696418
0.535198
0.644369
0.594259
0.5977
0.695933
0.377424
0.513966
0.680557
0.680695
0.494038
0.565498
0.493634
0.494939
0.43125
0.50466
0.550625
0.358303
0.680906
0.474052
0.401876
0.679163
0.5977
0.558166
0.583261
0.358085
0.680348
0.597697
0.5977
0.690958
0.577626
0.5977
0.680181
0.5977
0.679997
0.466634
0.679829
0.68008
0.409763
0.358031
0.597697
0.708971
0.5977
0.689579
0.680454
0.680516
0.680443
0.597697
0.679143
0.680164
0.69511
0.35855
0.680197
0.5977
0.597717
0.59343
0.408681
0.482649
0.433548
0.5977
0.5977
0.679953
0.358144
0.573868
0.689252
0.501784
0.679785
0.680329
0.680349
0.5977
0.680107
0.534419
0.486231
0.479473
0.5977
0.496743
0.680235
0.480088
0.680599
0.680224
0.68067
0.561811
0.597699
0.597727
0.680489
0.452388
0.357895
0.691813
0.680037
0.5977
0.680396
0.695942
0.59613
0.358352
0.5977
0.688538
0.597705
0.680593
0.680924
0.681938
0.583989
0.577738
0.69033
0.596559
0.5977
0.358315
0.678486
0.679676
0.597698
0.497955
0.679277
0.597698
0.686471
0.680175
0.35847
0.358272
0.677976
0.5977
0.597697
0.685516
0.696074
0.512235
0.680361
0.679764
0.702806
0.358259
0.5977
0.358413
0.693562
0.68727
0.623096
0.678884
0.680019
0.544819
0.582583
0.68004
0.358213
0.5977
0.529889
0.680187
0.456066
0.5977
0.688595
0.677203
0.358244
0.558169
0.634128
0.358089
0.675214
0.496175
0.690276
0.35825
0.376474
0.465402
0.670338
0.68038
0.555093
0.546331
0.696408
0.689009
0.59772
0.5977
0.358096
0.5977
0.358352
0.68034
0.357922
0.5977
0.695092
0.562932
0.5977
0.372555
0.680152
0.420738
0.358337
0.691693
0.513665
0.591624
0.597697
0.463839
0.68929
0.680117
0.695397
0.5977
0.52778
0.5977
0.510947
0.35808
0.699969
0.680227
0.679715
0.358167
0.580587
0.5977
0.690519
0.5977
0.691771
0.5977
0.681786
0.564472
0.689785
0.690821
0.5977
0.689578
0.507873
0.679081
0.358269
0.506469
0.489983
0.358212
0.690221
0.68461
0.689968
0.680389
0.680161
0.56499
0.597707
0.533467
0.474677
0.358549
0.487643
0.358173
0.678924
0.687297
0.358232
0.458118
0.680393
0.542163
0.597724
0.685877
0.597694
0.5977